          1 
# CELL(abcABC):  350.23300   350.23300   350.23300    90.00000    90.00000    90.00000  cell{atomic_unit}  Traj: positions{angstrom} Step:           0  Bead:       0 
H  1  0 0 

