LAMMPS data file from restart file: timestep = 12100000, procs = 8

6 atoms

1 atom types

-50 50 xlo xhi
-50 50 ylo yhi
-50 50 zlo zhi

Masses

1 12.01

Atoms

1  1                     0.000000    1.391862    0.000000
2  1                     1.205388    0.695931    0.000000
3  1                     1.205388   -0.695931    0.000000
4  1                     0.000000   -1.391862    0.000000
5  1                    -1.205388   -0.695931    0.000000
6  1                    -1.205388    0.695931    0.000000
