108
# CELL(abcABC):   33.72594    33.72594    33.72594    90.00000    90.00000    90.00000  Traj: positions Step:           0  Bead:       0
      H2  2.77790e-01  2.49444e-01  2.15429e-01
      H2 -2.36216e-01  5.56146e+00  6.02445e+00
      H2  5.74855e+00  5.55013e+00  2.02201e-01
      H2  5.62382e+00 -2.79679e-01  5.59359e+00
      H2 -4.32747e-01 -5.66918e-02  1.11928e+01
      H2  1.77634e-01  5.66729e+00  1.68469e+01
      H2  5.58225e+00  5.47076e+00  1.11683e+01
      H2  5.46509e+00 -2.92908e-01  1.67619e+01
      H2 -9.07069e-02  1.64406e-01  2.24896e+01
      H2  3.21253e-02  5.56902e+00  2.82609e+01
      H2  5.62949e+00  5.64839e+00  2.24405e+01
      H2  5.62382e+00  2.15429e-01  2.79566e+01
      H2 -1.00155e-01  1.10587e+01 -3.11805e-01
      H2  1.13384e-02  1.67392e+01  5.74477e+00
      H2  5.74666e+00  1.69149e+01 -1.81414e-01
      H2  5.68241e+00  1.11097e+01  5.43485e+00
      H2  1.07714e-01  1.11683e+01  1.14064e+01
      H2 -1.83303e-01  1.67562e+01  1.66371e+01
      H2  5.35170e+00  1.65653e+01  1.08073e+01
      H2  5.94886e+00  1.12552e+01  1.69395e+01
      H2  5.85815e-02  1.12892e+01  2.25482e+01
      H2  2.34326e-01  1.69546e+01  2.78224e+01
      H2  5.66540e+00  1.67449e+01  2.25860e+01
      H2  5.61438e+00  1.12306e+01  2.81834e+01
      H2  1.70075e-02  2.22421e+01  1.68186e-01
      H2  2.83459e-02  2.82155e+01  5.65406e+00
      H2  5.52556e+00  2.81361e+01  1.17163e-01
      H2  5.35170e+00  2.25218e+01  5.97531e+00
      H2 -1.83303e-01  2.24594e+01  1.15368e+01
      H2  3.19364e-01  2.78376e+01  1.67978e+01
      H2  5.43674e+00  2.78735e+01  1.11891e+01
      H2  5.81658e+00  2.27485e+01  1.68866e+01
      H2  3.59048e-02  2.26975e+01  2.24594e+01
      H2  2.62672e-01  2.80587e+01  2.80454e+01
      H2  5.48776e+00  2.80341e+01  2.27145e+01
      H2  5.82603e+00  2.27013e+01  2.82363e+01
      H2  1.14177e+01  9.63760e-02 -2.30547e-01
      H2  1.11702e+01  5.58792e+00  5.31202e+00
      H2  1.69112e+01  5.87894e+00  2.45664e-02
      H2  1.69905e+01 -1.88973e-02  5.27989e+00
      H2  1.14536e+01  7.93685e-02  1.13724e+01
      H2  1.16332e+01  5.67296e+00  1.64557e+01
      H2  1.68601e+01  5.79957e+00  1.11664e+01
      H2  1.69849e+01  2.49444e-01  1.70189e+01
      H2  1.11796e+01  2.96687e-01  2.25558e+01
      H2  1.13591e+01  5.36871e+00  2.81739e+01
      H2  1.69584e+01  5.65028e+00  2.24991e+01
      H2  1.69055e+01 -2.26767e-02  2.78961e+01
      H2  1.10946e+01  1.10662e+01 -2.24877e-01
      H2  1.16483e+01  1.67108e+01  5.70130e+00
      H2  1.73723e+01  1.65578e+01  1.43619e-01
      H2  1.66938e+01  1.12722e+01  5.35737e+00
      H2  1.13138e+01  1.13440e+01  1.12269e+01
      H2  1.12949e+01  1.69584e+01  1.67033e+01
      H2  1.70548e+01  1.67165e+01  1.13799e+01
      H2  1.67203e+01  1.07601e+01  1.72778e+01
      H2  1.11947e+01  1.13988e+01  2.24216e+01
      H2  1.13743e+01  1.66806e+01  2.80927e+01
      H2  1.66957e+01  1.71512e+01  2.25652e+01
      H2  1.68016e+01  1.14121e+01  2.81475e+01
      H2  1.10662e+01  2.26729e+01  1.98421e-01
      H2  1.10133e+01  2.79358e+01  5.48587e+00
      H2  1.68979e+01  2.81550e+01 -7.93685e-02
      H2  1.68753e+01  2.26125e+01  5.69752e+00
      H2  1.14763e+01  2.24216e+01  1.11721e+01
      H2  1.13969e+01  2.81399e+01  1.69679e+01
      H2  1.69546e+01  2.80776e+01  1.11173e+01
      H2  1.69263e+01  2.23649e+01  1.69452e+01
      H2  1.12741e+01  2.24537e+01  2.27599e+01
      H2  1.12382e+01  2.77884e+01  2.79188e+01
      H2  1.67732e+01  2.80681e+01  2.25841e+01
      H2  1.69924e+01  2.25199e+01  2.82117e+01
      H2  2.25747e+01  1.66296e-01 -5.29123e-02
      H2  2.23536e+01  5.82225e+00  5.89028e+00
      H2  2.83535e+01  5.73154e+00 -1.51178e-02
      H2  2.80209e+01  2.26767e-01  5.72398e+00
      H2  2.24991e+01  3.21253e-02  1.13289e+01
      H2  2.24367e+01  5.51044e+00  1.70378e+01
      H2  2.81701e+01  5.78634e+00  1.12628e+01
      H2  2.82476e+01 -2.30547e-01  1.67505e+01
      H2  2.24292e+01 -2.22988e-01  2.25444e+01
      H2  2.25482e+01  5.41029e+00  2.83062e+01
      H2  2.80341e+01  5.62382e+00  2.27107e+01
      H2  2.80662e+01 -4.11960e-01  2.79358e+01
      H2  2.24726e+01  1.13195e+01  1.09604e-01
      H2  2.23290e+01  1.64104e+01  5.54824e+00
      H2  2.82665e+01  1.67732e+01 -1.03935e-01
      H2  2.80435e+01  1.14536e+01  5.51044e+00
      H2  2.25085e+01  1.12836e+01  1.08206e+01
      H2  2.25274e+01  1.69074e+01  1.68469e+01
      H2  2.84064e+01  1.69546e+01  1.10190e+01
      H2  2.77771e+01  1.11286e+01  1.68771e+01
      H2  2.22326e+01  1.10436e+01  2.23857e+01
      H2  2.26446e+01  1.65446e+01  2.82193e+01
      H2  2.80435e+01  1.68677e+01  2.25766e+01
      H2  2.83005e+01  1.07941e+01  2.79131e+01
      H2  2.23441e+01  2.24329e+01 -1.32281e-02
      H2  2.24764e+01  2.80435e+01  5.23643e+00
      H2  2.84196e+01  2.82098e+01  3.96842e-02
      H2  2.81116e+01  2.23951e+01  5.49910e+00
      H2  2.22704e+01  2.25520e+01  1.14725e+01
      H2  2.25577e+01  2.77431e+01  1.68734e+01
      H2  2.82231e+01  2.81607e+01  1.10984e+01
      H2  2.81229e+01  2.25709e+01  1.70208e+01
      H2  2.25652e+01  2.25936e+01  2.24443e+01
      H2  2.22818e+01  2.81569e+01  2.82609e+01
      H2  2.80398e+01  2.82457e+01  2.23573e+01
      H2  2.81399e+01  2.26862e+01  2.84404e+01
