7
# CELL(abcABC):   13.38377    13.38377    13.38377    90.00000    90.00000    90.00000  Traj: positions{angstrom} Step:           0  Bead:       9 
       O  5.40450e-01 -9.74850e-01 -2.16580e-01
       O  2.92484e+00 -8.39252e-01  1.52397e-01
       H  1.83860e-01 -1.25804e+00 -1.07875e+00
       H  1.74329e+00 -9.09278e-01 -1.00395e-01
       H  3.29707e+00 -1.59324e+00  6.47253e-01
       H  3.53033e+00 -6.08138e-01 -5.76078e-01
       H  4.23316e-02 -1.94860e-01  9.22810e-02
7
# CELL(abcABC):   13.38377    13.38377    13.38377    90.00000    90.00000    90.00000  Traj: positions{angstrom} Step:           2  Bead:       9 
       O  5.40491e-01 -9.75162e-01 -2.16757e-01
       O  2.92520e+00 -8.39150e-01  1.52184e-01
       H  1.83014e-01 -1.25587e+00 -1.07740e+00
       H  1.74203e+00 -9.06649e-01 -9.97434e-02
       H  3.29677e+00 -1.59491e+00  6.46365e-01
       H  3.52558e+00 -6.06444e-01 -5.75161e-01
       H  4.16467e-02 -1.94747e-01  9.17196e-02
