7
# CELL(abcABC):   13.38377    13.38377    13.38377    90.00000    90.00000    90.00000  Traj: positions{angstrom} Step:           0  Bead:       6 
       O  5.40450e-01 -9.74850e-01 -2.16580e-01
       O  2.92484e+00 -8.39252e-01  1.52397e-01
       H  1.83860e-01 -1.25804e+00 -1.07875e+00
       H  1.74329e+00 -9.09278e-01 -1.00395e-01
       H  3.29707e+00 -1.59324e+00  6.47253e-01
       H  3.53033e+00 -6.08138e-01 -5.76078e-01
       H  4.23316e-02 -1.94860e-01  9.22810e-02
7
# CELL(abcABC):   13.38377    13.38377    13.38377    90.00000    90.00000    90.00000  Traj: positions{angstrom} Step:           2  Bead:       6 
       O  5.39984e-01 -9.75087e-01 -2.16737e-01
       O  2.92376e+00 -8.39200e-01  1.52039e-01
       H  1.82637e-01 -1.25633e+00 -1.07873e+00
       H  1.74259e+00 -9.08336e-01 -9.66630e-02
       H  3.29682e+00 -1.59279e+00  6.45419e-01
       H  3.53170e+00 -6.09059e-01 -5.73220e-01
       H  4.04333e-02 -1.99469e-01  9.25409e-02
