7
# CELL(abcABC):   13.38377    13.38377    13.38377    90.00000    90.00000    90.00000  Traj: positions{angstrom} Step:           0  Bead:       0 
       O  5.40450e-01 -9.74850e-01 -2.16580e-01
       O  2.92484e+00 -8.39252e-01  1.52397e-01
       H  1.83860e-01 -1.25804e+00 -1.07875e+00
       H  1.74329e+00 -9.09278e-01 -1.00395e-01
       H  3.29707e+00 -1.59324e+00  6.47253e-01
       H  3.53033e+00 -6.08138e-01 -5.76078e-01
       H  4.23316e-02 -1.94860e-01  9.22810e-02
7
# CELL(abcABC):   13.38377    13.38377    13.38377    90.00000    90.00000    90.00000  Traj: positions{angstrom} Step:           2  Bead:       0 
       O  5.40464e-01 -9.76091e-01 -2.16828e-01
       O  2.92532e+00 -8.40535e-01  1.52674e-01
       H  1.81341e-01 -1.25730e+00 -1.08025e+00
       H  1.74179e+00 -9.10664e-01 -1.00400e-01
       H  3.29551e+00 -1.59193e+00  6.49214e-01
       H  3.53317e+00 -6.06398e-01 -5.75457e-01
       H  4.23111e-02 -1.97247e-01  9.24577e-02
