7
# CELL(abcABC):   13.38377    13.38377    13.38377    90.00000    90.00000    90.00000  Traj: positions{angstrom} Step:           0  Bead:       4 
       O  5.40450e-01 -9.74850e-01 -2.16580e-01
       O  2.92484e+00 -8.39252e-01  1.52397e-01
       H  1.83860e-01 -1.25804e+00 -1.07875e+00
       H  1.74329e+00 -9.09278e-01 -1.00395e-01
       H  3.29707e+00 -1.59324e+00  6.47253e-01
       H  3.53033e+00 -6.08138e-01 -5.76078e-01
       H  4.23316e-02 -1.94860e-01  9.22810e-02
7
# CELL(abcABC):   13.38377    13.38377    13.38377    90.00000    90.00000    90.00000  Traj: positions{angstrom} Step:           2  Bead:       4 
       O  5.40689e-01 -9.74823e-01 -2.16896e-01
       O  2.92535e+00 -8.38776e-01  1.52566e-01
       H  1.80782e-01 -1.25521e+00 -1.07664e+00
       H  1.74493e+00 -9.10214e-01 -9.75553e-02
       H  3.29592e+00 -1.59509e+00  6.44052e-01
       H  3.52803e+00 -6.06699e-01 -5.74488e-01
       H  4.05250e-02 -1.92405e-01  9.00139e-02
