7
# CELL(abcABC):   13.38377    13.38377    13.38377    90.00000    90.00000    90.00000  Traj: positions{angstrom} Step:           0  Bead:      13 
       O  5.40450e-01 -9.74850e-01 -2.16580e-01
       O  2.92484e+00 -8.39252e-01  1.52397e-01
       H  1.83860e-01 -1.25804e+00 -1.07875e+00
       H  1.74329e+00 -9.09278e-01 -1.00395e-01
       H  3.29707e+00 -1.59324e+00  6.47253e-01
       H  3.53033e+00 -6.08138e-01 -5.76078e-01
       H  4.23316e-02 -1.94860e-01  9.22810e-02
7
# CELL(abcABC):   13.38377    13.38377    13.38377    90.00000    90.00000    90.00000  Traj: positions{angstrom} Step:           2  Bead:      13 
       O  5.40659e-01 -9.74157e-01 -2.16754e-01
       O  2.92492e+00 -8.39587e-01  1.53944e-01
       H  1.86804e-01 -1.25905e+00 -1.07782e+00
       H  1.74277e+00 -9.10017e-01 -1.02113e-01
       H  3.29396e+00 -1.59574e+00  6.47250e-01
       H  3.52977e+00 -6.11501e-01 -5.74789e-01
       H  4.34329e-02 -1.99787e-01  9.22991e-02
