<simulation>
   <total_steps>100000</total_steps>
   <step>1999</step>
   <output prefix=''>
      <properties stride='2' shape='(9)' filename='lj-nst.out'>
       [ step, time{picosecond}, conserved, temperature{kelvin}, kinetic_md, 
         potential, pressure_md{megapascal}, volume, cell_h ]
      </properties>
      <trajectory format='pdb' filename='lj-nst.pos' stride='20'>positions</trajectory>
      <checkpoint stride='2000' filename='lj-nst.restart'>2</checkpoint>
   </output>
   <prng>
      <state shape='(624)'>
       [ 3993423900, 1113419329, 334993547, 427864705, 1633525531, 
         4060417614, 1488910073, 2034593356, 2618579415, 3220592271, 
         837714229, 4172994024, 3431635592, 435352047, 3303391344, 
         3365689050, 2491746360, 1689060846, 651509418, 1842916214, 
         1905906136, 1817844367, 238316607, 3596567248, 3750836141, 
         3089170292, 385011324, 2644273894, 3623193514, 3783660269, 
         2268292652, 2214841636, 4254253193, 2279761907, 283494190, 
         729756490, 3980476213, 4203620255, 1703848683, 3305952050, 
         3984374710, 2446048426, 2827919837, 3596951878, 2387588103, 
         181518884, 1891881919, 4138212719, 1189598696, 3630100303, 
         3203055365, 1425251448, 594847213, 2365691561, 1661890937, 
         272348455, 1598686623, 3967406919, 3508975905, 3613445558, 
         1400315075, 917198673, 3025939539, 669588893, 777848797, 
         3588004450, 2408124816, 2112389403, 4121451004, 295922111, 
         3436303805, 3378149607, 3516158596, 312512082, 1143072889, 
         2582042347, 3410134199, 3012808081, 930905501, 132222035, 
         883457820, 3459152041, 842762495, 3825763864, 1808880156, 
         2748839352, 243667361, 4187339565, 1752153426, 332856498, 
         4195010334, 2751570638, 3632801504, 2367221900, 1450869425, 
         2764044607, 1028107043, 4066242628, 2461423089, 2872176099, 
         3133092645, 568933327, 784338324, 2801327387, 1011883099, 
         1387060598, 2945857520, 2527975467, 254115926, 2285238751, 
         2542496996, 2848545040, 2864171952, 3393289550, 359879329, 
         1368252022, 534865647, 1061679244, 258727289, 3429233670, 
         2321110234, 955332535, 3670043768, 3395645534, 1324774274, 
         3138404386, 3407951653, 2515783713, 1879375083, 376713662, 
         3546035224, 4273483936, 95866179, 666736888, 3983153814, 
         2620797654, 2912478697, 1561023656, 233460637, 2037569521, 
         2901989470, 4000284428, 2330945880, 3084038789, 877306497, 
         1009655105, 2351119283, 3531952815, 3041379542, 3918853668, 
         3440594895, 3864012994, 29325855, 2163916737, 1313096514, 
         3009618954, 2146714964, 654674098, 1097776111, 549323701, 
         2810173562, 4203409480, 1700249025, 1008869215, 3100486412, 
         2486163387, 3840021943, 467841128, 2819122040, 3621978612, 
         2613874483, 626733622, 2908377952, 162823356, 3189761662, 
         424341921, 987042522, 1447068851, 1756481649, 3946096961, 
         3316152643, 1009509782, 1395193997, 2196479434, 375291929, 
         2690732175, 3051920933, 775835987, 1452471044, 2457847994, 
         4105823645, 4024655799, 2156550489, 721781016, 1976479204, 
         158380117, 528131006, 1185181186, 3554354493, 833843817, 
         989471402, 3864419053, 2676254118, 2543577299, 1486612691, 
         1879128755, 3863386643, 2912051330, 278820331, 34495456, 
         4000882528, 3644153455, 3453044064, 3529887728, 1439937113, 
         376533430, 2064759261, 3530619663, 3056570759, 843058394, 
         3912469468, 1495130043, 542159306, 3933108933, 4291050568, 
         1742316557, 926488240, 2172853731, 2052283946, 2125570479, 
         3266451426, 626675487, 1740523791, 3580629734, 1083718481, 
         2680637466, 1369075215, 1047270671, 4118391162, 2956107714, 
         2216214112, 186862431, 765496798, 3010460857, 564515561, 
         3488950144, 3402477865, 3799315370, 1742579081, 697865016, 
         1225334185, 3450574049, 1823015760, 3680264808, 617489574, 
         385814394, 2471221625, 1250350974, 1906865068, 946836793, 
         2806882655, 383123634, 311204517, 3859126651, 992412884, 
         944376614, 2306574160, 2004859950, 2031455611, 3307863289, 
         2309099620, 1268710235, 649662021, 1898238913, 3529729721, 
         1044668673, 3592498435, 1373695677, 2025497733, 2058241908, 
         2052123479, 651814291, 758655770, 321916955, 1641849045, 
         111664201, 2991766995, 2956948875, 2560246683, 2040356715, 
         1752899579, 1909043148, 2541570462, 2766793770, 1541195701, 
         490597400, 2359754509, 87002598, 1068492094, 1292920074, 
         465719414, 43215403, 636755187, 1550830861, 3857602013, 
         2053177198, 2917105664, 1263139712, 1801570436, 44488884, 
         3745172866, 3597494795, 4007270721, 1123638442, 1227572977, 
         278503260, 2435728108, 3838288599, 2030638290, 1903134301, 
         1945608581, 2974760974, 1189558302, 3820314018, 2601295628, 
         2428158158, 3255619433, 3109964886, 2080144388, 2617721012, 
         806021561, 4249489678, 1934387969, 2691330413, 4098873398, 
         4278764136, 503762543, 138531089, 2991255020, 1384371347, 
         4189220589, 68943861, 914542199, 3957473015, 1713892610, 
         2716784453, 3504789480, 637534898, 563014502, 2530221550, 
         3637690795, 355521677, 3618648130, 2602446424, 3770296580, 
         71840671, 215435000, 3263397115, 84231768, 1201809801, 
         2038935656, 820561997, 1236155634, 3123051056, 1023616872, 
         1245506010, 4107006493, 936806219, 3074980838, 4091062594, 
         176216649, 1590546346, 1841958585, 3508311745, 4148932216, 
         4087312390, 4166583485, 2579120619, 2721144289, 3924092360, 
         1937520100, 2769628533, 1293891586, 217801338, 4216612009, 
         2343238300, 560850529, 1013090858, 939566838, 1303881835, 
         2595561844, 3697437483, 1110297911, 2963449105, 4267449628, 
         758510098, 560134755, 487247631, 125514479, 1050886584, 
         1780136288, 3499863514, 1539172000, 3088608591, 279615721, 
         4106668292, 2965979977, 3994529938, 3019889532, 2051888024, 
         3870013180, 3225161355, 1024062201, 2939657298, 974778850, 
         2150257011, 3759352378, 3269026321, 3214787066, 76863237, 
         1481295757, 450498242, 1572944498, 1337975905, 3390271542, 
         2001038476, 164696301, 1166412350, 2323154373, 720603707, 
         1546266444, 349646346, 1673166069, 2914575040, 1500601004, 
         588077240, 3188396871, 78997998, 1778674950, 3683436750, 
         705124789, 2178425879, 2174252762, 968777788, 220963858, 
         165068074, 896371144, 119577086, 465586437, 1509846033, 
         3325100150, 3345600532, 1846686753, 3700000315, 1304349396, 
         1981786826, 1072601873, 2057312163, 1606883028, 2053264506, 
         2273191349, 4282491180, 1202685245, 4221101042, 2518533322, 
         3506428718, 3065832894, 356167442, 4066412936, 1754613952, 
         2199142763, 3247556871, 4134174724, 2448579381, 46357759, 
         2672251936, 2631177124, 2651648514, 1534883737, 3762497703, 
         1155622933, 828086240, 3098553656, 2234945053, 559583713, 
         2045132761, 2387286494, 3274771377, 3922288231, 1935429038, 
         3066167811, 1079290209, 4132399436, 3544070452, 684748168, 
         2312567191, 1379711375, 2908350231, 1793497367, 2922700151, 
         564291161, 4143387378, 1493317641, 2806737131, 236380792, 
         3598599290, 436715668, 2006245524, 2419341579, 1942125734, 
         340697380, 3452215335, 3591261553, 3856042958, 1464478535, 
         1513277336, 3163189855, 3500154973, 2086383968, 1856608217, 
         658994318, 2225381630, 3578157671, 2777195752, 693513463, 
         2151378320, 100010868, 1365894065, 2017113706, 311683408, 
         415309929, 3658407481, 94332233, 1350840298, 1846233702, 
         2581017837, 1384144092, 1137226601, 3206650446, 1948735545, 
         4294580073, 899690051, 4026778884, 2271737723, 211857577, 
         2161571309, 3149296167, 1206559228, 2335865081, 13316493, 
         242893639, 794213474, 3271053062, 1800366656, 1039000675, 
         1226788220, 2442581586, 3183758599, 2528868006, 817323636, 
         2155968520, 3952734008, 112098147, 2108030484, 3253364399, 
         603625693, 1992606707, 430266764, 2000017074, 2484881100, 
         1270581285, 3321222891, 4012524216, 1132000567, 684805250, 
         1052246902, 220005481, 1959630912, 3916066179, 1915646728, 
         50990887, 976093582, 1130801464, 2301636289, 560006416, 
         2347665620, 17328869, 676059586, 2624200945, 1710673338, 
         2531010872, 1060782278, 3533741272, 662698121, 49163046, 
         1983377203, 2012838158, 1682282873, 2363703483, 2695203681, 
         3507033204, 3333957892, 2417430261, 781826232, 117725741, 
         1217872649, 2735791673, 4031092425, 2358772286, 3173501249, 
         890952656, 1298333022, 893173478, 3816122306, 3167991980, 
         1819986836, 1455130434, 668945092, 3012379183, 421172868, 
         3797426326, 924970642, 546971786, 375493229 ]
      </state>
      <seed>3348</seed>
      <set_pos>232</set_pos>
   </prng>
   <ffsocket mode='unix' name='lj'>
      <address>lj_nst</address>
   </ffsocket>
   <system>
      <beads natoms='432' nbeads='1'>
         <q shape='(1, 1296)'>
          [  -4.30147756e-01,   7.29955629e-01,  -4.39317466e-02,   2.22926800e+00,   6.46316317e+00, 
             -3.35633601e-01,   2.03436904e+00,   1.78421982e+00,   5.88023602e+00,  -8.13628731e-01, 
              6.99674295e+00,   5.50214927e+00,  -1.00017687e+00,   3.03163032e+00,   1.08566790e+01, 
              1.98242007e+00,   8.43405488e+00,   1.00361016e+01,   1.68591581e+00,   5.62149224e+00, 
              1.53319679e+01,  -1.32041931e+00,   9.96973386e+00,   1.53383783e+01,  -2.48962944e+00, 
              6.94692779e+00,   2.00927804e+01,   1.82621595e+00,   1.10033550e+01,   1.96686478e+01, 
              1.01386826e+00,   7.85348370e+00,   2.44170038e+01,  -2.51226115e+00,   1.28384088e+01, 
              2.52898979e+01,  -2.88231380e+00,   9.26470959e+00,   2.98083061e+01,   6.59990838e-01, 
              1.49149784e+01,   2.99159609e+01,  -5.41573912e-01,   1.15027481e+01,   3.43148944e+01, 
             -3.96248844e+00,   1.66800095e+01,   3.46660516e+01,  -3.68639758e+00,   1.33919452e+01, 
              3.92262792e+01,  -1.05606563e+00,   1.82219036e+01,   3.94784075e+01,  -1.75481592e+00, 
              1.52008836e+01,   4.44127813e+01,  -4.55306375e+00,   2.02391148e+01,   4.39556942e+01, 
             -5.58384961e+00,   1.70833831e+01,   4.91383763e+01,  -2.67553413e+00,   2.17591465e+01, 
              4.92758336e+01,  -3.11495272e+00,   1.86383815e+01,   5.40753557e+01,  -5.35941492e+00, 
              2.34374534e+01,   5.39065965e+01,   1.13887013e-01,   1.13443335e+01,  -3.15065817e-01, 
              3.06413505e+00,   1.66471896e+01,  -1.12394440e+00,   2.65860915e+00,   1.24278761e+01, 
              4.99841880e+00,  -5.01564657e-01,   1.71486244e+01,   4.07035920e+00,  -1.06864506e+00, 
              1.35438623e+01,   9.64015043e+00,   2.23006762e+00,   1.78352678e+01,   9.22046084e+00, 
              1.63920065e+00,   1.45768649e+01,   1.42173824e+01,  -1.02271327e+00,   2.04257852e+01, 
              1.43978333e+01,  -1.83499939e+00,   1.61930831e+01,   1.96943331e+01,   1.44824835e+00, 
              2.04578366e+01,   1.95463609e+01,   9.48216730e-01,   1.72655451e+01,   2.42663699e+01, 
             -1.97288991e+00,   2.22122226e+01,   2.50527780e+01,  -3.48847525e+00,   1.96149702e+01, 
              2.99106706e+01,   3.04492616e-01,   2.57759926e+01,   2.86405021e+01,  -5.09428187e-01, 
              2.16059405e+01,   3.46194975e+01,  -2.80521019e+00,   2.69817345e+01,   3.43627174e+01, 
             -3.95840486e+00,   2.43852189e+01,   3.91993626e+01,  -4.56803464e-01,   2.93750541e+01, 
              3.96721492e+01,  -1.66433201e+00,   2.49118804e+01,   4.43866413e+01,  -4.20005790e+00, 
              3.01425548e+01,   4.37951743e+01,  -5.10854813e+00,   2.68171656e+01,   4.89229868e+01, 
             -1.95034943e+00,   3.18828442e+01,   4.82701055e+01,  -3.23536457e+00,   2.86598138e+01, 
              5.36202000e+01,  -5.41590805e+00,   3.38775727e+01,   5.33369210e+01,   4.69408351e-01, 
              2.13054704e+01,  -1.73347085e-01,   3.45854685e+00,   2.64676719e+01,  -3.71037513e-01, 
              3.35947583e+00,   2.21591833e+01,   4.71408071e+00,   9.21680045e-02,   2.70100191e+01, 
              5.16474848e+00,   7.77653978e-03,   2.29366096e+01,   9.58034529e+00,   2.73303240e+00, 
              2.83972341e+01,   1.00845220e+01,   2.36574734e+00,   2.50379622e+01,   1.46405872e+01, 
             -7.98664110e-01,   2.97196770e+01,   1.55090819e+01,  -8.49751328e-01,   2.57339253e+01, 
              1.92990913e+01,   1.71743308e+00,   3.27149695e+01,   1.96341952e+01,   1.19800608e+00, 
              2.89871818e+01,   2.38724227e+01,  -2.30548183e+00,   3.43367346e+01,   2.50173562e+01, 
             -2.78863954e+00,   3.07211086e+01,   2.94051276e+01,   1.45422367e+00,   3.53257125e+01, 
              2.86808075e+01,   2.45433208e-01,   3.16144786e+01,   3.42196936e+01,  -2.91625504e+00, 
              3.59621942e+01,   3.39799539e+01,  -3.27224175e+00,   3.36786640e+01,   3.88640206e+01, 
             -2.13025962e-01,   3.87048946e+01,   3.87637962e+01,  -1.45026683e+00,   3.49301133e+01, 
              4.40526720e+01,  -4.16097454e+00,   4.05194868e+01,   4.40296888e+01,  -5.20485714e+00, 
              3.70343003e+01,   4.88638748e+01,  -1.88224692e+00,   4.23039226e+01,   4.85113249e+01, 
             -2.41309804e+00,   3.98725680e+01,   5.34103289e+01,  -5.11434396e+00,   4.44047657e+01, 
              5.39517882e+01,   4.69304378e+00,   1.15278197e+00,   1.02012155e+00,   7.89100441e+00, 
              6.17496107e+00,   6.00587640e-01,   7.60468247e+00,   2.20906186e+00,   5.82117534e+00, 
              4.95604470e+00,   7.18935115e+00,   4.89463294e+00,   4.56849303e+00,   3.34187725e+00, 
              1.07176922e+01,   8.10075559e+00,   7.66298271e+00,   9.70105359e+00,   7.88783111e+00, 
              4.17876538e+00,   1.50885292e+01,   4.54767382e+00,   9.90663372e+00,   1.46483979e+01, 
              4.96043892e+00,   6.33750410e+00,   1.92943897e+01,   8.16201082e+00,   1.09711947e+01, 
              1.91335284e+01,   7.11218862e+00,   7.67708257e+00,   2.46867774e+01,   4.22347636e+00, 
              1.29147660e+01,   2.47214491e+01,   3.17418400e+00,   1.01850005e+01,   2.93289893e+01, 
              5.91453080e+00,   1.54589915e+01,   3.06094200e+01,   4.73196952e+00,   1.18792968e+01, 
              3.44325359e+01,   2.04845888e+00,   1.68388541e+01,   3.53055021e+01,   1.68113596e+00, 
              1.31786307e+01,   3.94456666e+01,   4.85113758e+00,   1.78714777e+01,   3.96044942e+01, 
              3.91252468e+00,   1.49612512e+01,   4.47556258e+01,   1.43682415e+00,   1.99807475e+01, 
              4.44433323e+01,   5.24597496e-01,   1.68154886e+01,   4.94544248e+01,   2.65266364e+00, 
              2.16087337e+01,   4.99212968e+01,   2.90052603e+00,   1.84205388e+01,   5.48920386e+01, 
             -2.31416617e-01,   2.34396056e+01,   5.46647551e+01,   5.64605655e+00,   1.14735712e+01, 
             -2.51891412e-01,   9.11719098e+00,   1.56257044e+01,  -5.49682974e-02,   8.73220170e+00, 
              1.17232023e+01,   4.30147365e+00,   5.55793530e+00,   1.69941986e+01,   4.60921219e+00, 
              5.32813937e+00,   1.30420179e+01,   9.63731475e+00,   8.45028138e+00,   1.74862959e+01, 
              9.67700464e+00,   7.49209546e+00,   1.44386320e+01,   1.46154947e+01,   4.37772715e+00, 
              2.00870630e+01,   1.42935895e+01,   4.71541938e+00,   1.57470152e+01,   1.95269944e+01, 
              7.84901464e+00,   2.16953542e+01,   1.90660107e+01,   6.98657740e+00,   1.85771618e+01, 
              2.38287958e+01,   3.90192285e+00,   2.39538790e+01,   2.39882013e+01,   2.37702876e+00, 
              2.02413972e+01,   2.86145016e+01,   5.61214591e+00,   2.51786613e+01,   2.95829683e+01, 
              5.17550315e+00,   2.11858616e+01,   3.44306242e+01,   2.75469573e+00,   2.67123457e+01, 
              3.42324131e+01,   2.15098790e+00,   2.29718182e+01,   3.98952836e+01,   4.93473234e+00, 
              2.86363973e+01,   3.93424339e+01,   4.25724924e+00,   2.44802566e+01,   4.52630520e+01, 
              2.51503208e+00,   2.98919873e+01,   4.44828996e+01,   5.85483566e-01,   2.70496533e+01, 
              4.93064686e+01,   3.59754921e+00,   3.26561074e+01,   4.92815753e+01,   2.03403965e+00, 
              2.87568384e+01,   5.43968887e+01,   5.80775250e-02,   3.40732735e+01,   5.36684319e+01, 
              5.98599099e+00,   2.13661033e+01,  -4.21831182e-01,   9.43781111e+00,   2.62406136e+01, 
              4.25363676e-01,   9.01925933e+00,   2.15639964e+01,   4.61052734e+00,   5.91997958e+00, 
              2.75144590e+01,   5.11328150e+00,   5.84715558e+00,   2.28848598e+01,   9.65781148e+00, 
              8.24217948e+00,   2.88802078e+01,   1.02294677e+01,   7.72280293e+00,   2.46904597e+01, 
              1.46181320e+01,   5.05014855e+00,   3.03926269e+01,   1.47781954e+01,   4.96939080e+00, 
              2.66481220e+01,   1.94626420e+01,   7.81563558e+00,   3.14116477e+01,   1.97017482e+01, 
              7.07076626e+00,   2.88873446e+01,   2.43084014e+01,   4.83208804e+00,   3.36565716e+01, 
              2.44429732e+01,   3.28054237e+00,   3.02326988e+01,   2.95014540e+01,   7.36957183e+00, 
              3.60505316e+01,   2.97094363e+01,   5.89562250e+00,   3.20164348e+01,   3.50647407e+01, 
              3.11155211e+00,   3.69485072e+01,   3.42390818e+01,   2.86866843e+00,   3.41629981e+01, 
              3.91769794e+01,   5.78556991e+00,   3.93361324e+01,   3.95661249e+01,   4.87105115e+00, 
              3.56810801e+01,   4.45362941e+01,   1.36591156e+00,   4.01423730e+01,   4.39544198e+01, 
              9.41415774e-01,   3.75293626e+01,   4.88446957e+01,   4.91824973e+00,   4.14903132e+01, 
              4.91482604e+01,   3.30852210e+00,   3.87029602e+01,   5.39894148e+01,   1.29376113e+00, 
              4.40755139e+01,   5.39075087e+01,   1.09711611e+01,   1.51598569e+00,   5.55400370e-01, 
              1.54111075e+01,   4.83233196e+00,  -1.08307864e-01,   1.46332163e+01,   1.84211843e+00, 
              4.65741969e+00,   1.14191320e+01,   6.85908364e+00,   4.67273910e+00,   1.16321574e+01, 
              2.50325928e+00,   1.01507972e+01,   1.40901513e+01,   7.35397134e+00,   9.64262937e+00, 
              1.36895137e+01,   4.62372571e+00,   1.45924493e+01,   1.07635357e+01,   9.96553870e+00, 
              1.41261772e+01,   1.01481507e+01,   5.62290676e+00,   1.99868938e+01,   1.34082142e+01, 
              1.13726895e+01,   1.88482379e+01,   1.28148093e+01,   8.24143347e+00,   2.39842322e+01, 
              9.90368043e+00,   1.36536300e+01,   2.38936755e+01,   8.76417457e+00,   1.06176450e+01, 
              2.90227566e+01,   1.15260556e+01,   1.54381759e+01,   2.99610445e+01,   1.08695155e+01, 
              1.12453378e+01,   3.39636273e+01,   8.49425936e+00,   1.65637659e+01,   3.55306542e+01, 
              7.71933562e+00,   1.31056030e+01,   3.97002268e+01,   1.07491891e+01,   1.86549596e+01, 
              4.00487549e+01,   9.74857977e+00,   1.47958865e+01,   4.52306164e+01,   7.01407783e+00, 
              1.97088227e+01,   4.46318021e+01,   5.82727564e+00,   1.71946219e+01,   4.97840908e+01, 
              8.11233958e+00,   2.27610566e+01,   4.93814532e+01,   8.31642521e+00,   1.95775239e+01, 
              5.39019148e+01,   4.99399668e+00,   2.38973292e+01,   5.44829361e+01,   1.19991257e+01, 
              1.02638059e+01,   2.86672733e-01,   1.51679001e+01,   1.58655703e+01,  -1.78818177e-01, 
              1.49041013e+01,   1.16058092e+01,   4.54179023e+00,   1.20178642e+01,   1.63805928e+01, 
              4.83244436e+00,   1.09531721e+01,   1.28131005e+01,   9.21483668e+00,   1.41688838e+01, 
              1.85334419e+01,   9.41427244e+00,   1.35374296e+01,   1.49122800e+01,   1.37309301e+01, 
              1.09172003e+01,   1.95326475e+01,   1.39057881e+01,   1.05822453e+01,   1.62105575e+01, 
              1.89782348e+01,   1.34566007e+01,   2.11658886e+01,   1.90916978e+01,   1.24668302e+01, 
              1.84654869e+01,   2.41538007e+01,   9.72285799e+00,   2.36834277e+01,   2.39249166e+01, 
              9.03272783e+00,   2.03890034e+01,   2.88704476e+01,   1.13416904e+01,   2.53276187e+01, 
              2.92048777e+01,   1.09797590e+01,   2.17010082e+01,   3.35115220e+01,   8.25019639e+00, 
              2.68111541e+01,   3.41765794e+01,   7.79559139e+00,   2.32650587e+01,   3.88086660e+01, 
              1.08466509e+01,   2.81375891e+01,   3.94607594e+01,   9.69554474e+00,   2.46343065e+01, 
              4.34798667e+01,   8.18215242e+00,   3.01250813e+01,   4.47570055e+01,   6.22692394e+00, 
              2.77940301e+01,   4.94433707e+01,   1.03903155e+01,   3.17218763e+01,   4.92340340e+01, 
              8.74085565e+00,   2.79173290e+01,   5.42615248e+01,   5.63647916e+00,   3.38152561e+01, 
              5.41069324e+01,   1.17938627e+01,   2.11292782e+01,  -3.55156597e-01,   1.59476706e+01, 
              2.63542102e+01,  -9.41416516e-02,   1.46182757e+01,   2.23021453e+01,   4.60338288e+00, 
              1.20484556e+01,   2.76400329e+01,   4.98885558e+00,   1.15443140e+01,   2.34473106e+01, 
              9.29937571e+00,   1.44997112e+01,   2.81582245e+01,   9.81992585e+00,   1.39002829e+01, 
              2.44952115e+01,   1.41744186e+01,   1.15189816e+01,   2.97980759e+01,   1.45530839e+01, 
              1.08856338e+01,   2.65829165e+01,   1.89317421e+01,   1.36971868e+01,   3.13634263e+01, 
              1.93025641e+01,   1.30414277e+01,   2.83650630e+01,   2.43817823e+01,   1.05101257e+01, 
              3.33308442e+01,   2.41680781e+01,   9.05415359e+00,   3.05423024e+01,   2.91913495e+01, 
              1.31715757e+01,   3.47855396e+01,   2.86711983e+01,   1.21188105e+01,   3.27518031e+01, 
              3.40652340e+01,   9.08526512e+00,   3.73409904e+01,   3.49494652e+01,   8.57155984e+00, 
              3.33870695e+01,   3.99653035e+01,   1.17533303e+01,   3.83630213e+01,   3.95080258e+01, 
              1.14679316e+01,   3.50676665e+01,   4.47584078e+01,   8.38241684e+00,   4.01465905e+01, 
              4.44962365e+01,   7.39633626e+00,   3.65877427e+01,   4.95584387e+01,   1.00833660e+01, 
              4.26014322e+01,   4.98328548e+01,   8.99904585e+00,   3.94089687e+01,   5.41589116e+01, 
              6.64817494e+00,   4.42952609e+01,   5.43958437e+01,   1.83702996e+01,   5.96901996e-01, 
             -2.50127298e-01,   2.12211531e+01,   5.64779288e+00,   7.68891348e-01,   2.04357289e+01, 
              1.86822184e+00,   4.98418557e+00,   1.70188900e+01,   6.52665099e+00,   4.56581645e+00, 
              1.70525621e+01,   2.45344581e+00,   9.57382577e+00,   1.98251713e+01,   7.95003303e+00, 
              9.54853016e+00,   1.92658773e+01,   5.05850120e+00,   1.47195410e+01,   1.60410786e+01, 
              9.94480281e+00,   1.42589276e+01,   1.58594093e+01,   6.53537997e+00,   1.94898664e+01, 
              1.86692844e+01,   1.18162557e+01,   2.00887083e+01,   1.80024150e+01,   7.87526210e+00, 
              2.46237236e+01,   1.51291254e+01,   1.34390661e+01,   2.41572202e+01,   1.48975678e+01, 
              9.56657532e+00,   2.93783238e+01,   1.75037541e+01,   1.49578430e+01,   2.93333705e+01, 
              1.66436109e+01,   1.20204032e+01,   3.41064911e+01,   1.39587958e+01,   1.67204335e+01, 
              3.49101786e+01,   1.32935836e+01,   1.38513354e+01,   3.99849172e+01,   1.59784524e+01, 
              1.86721784e+01,   3.96412108e+01,   1.59656086e+01,   1.52814477e+01,   4.43643720e+01, 
              1.32100340e+01,   2.04861571e+01,   4.48766922e+01,   1.14874293e+01,   1.74759675e+01, 
              4.96177297e+01,   1.50876267e+01,   2.19878395e+01,   5.00135289e+01,   1.52677498e+01, 
              1.82292562e+01,   5.45525049e+01,   1.28543443e+01,   2.41062469e+01,   5.49768411e+01, 
              1.78198304e+01,   9.96845399e+00,  -5.89805931e-02,   2.04853026e+01,   1.64092715e+01, 
              8.55416719e-02,   2.06457795e+01,   1.16438642e+01,   4.89574186e+00,   1.76133208e+01, 
              1.67188912e+01,   4.83737115e+00,   1.68327528e+01,   1.27247356e+01,   9.28755285e+00, 
              2.03171326e+01,   1.79253352e+01,   9.59355980e+00,   1.94262073e+01,   1.43501497e+01, 
              1.39365355e+01,   1.68158907e+01,   1.91740899e+01,   1.40524665e+01,   1.60564578e+01, 
              1.63029848e+01,   1.90608940e+01,   1.92629273e+01,   2.12973571e+01,   1.97512175e+01, 
              1.81307977e+01,   1.82781049e+01,   2.39616038e+01,   1.55293085e+01,   2.36754625e+01, 
              2.41366210e+01,   1.49139414e+01,   1.97529629e+01,   2.94665990e+01,   1.75368712e+01, 
              2.47303048e+01,   2.92280151e+01,   1.65494373e+01,   2.18402194e+01,   3.44844997e+01, 
              1.36931990e+01,   2.73161838e+01,   3.40075776e+01,   1.38954219e+01,   2.35915989e+01, 
              3.91562734e+01,   1.69039523e+01,   2.84023418e+01,   3.90751173e+01,   1.62238649e+01, 
              2.53217641e+01,   4.37039198e+01,   1.37357256e+01,   3.01106098e+01,   4.36930824e+01, 
              1.21979835e+01,   2.69296973e+01,   4.83793205e+01,   1.56268694e+01,   3.24299143e+01, 
              4.81989453e+01,   1.46421707e+01,   2.89614258e+01,   5.34122271e+01,   1.21717679e+01, 
              3.45753161e+01,   5.41245880e+01,   1.78037450e+01,   2.13601052e+01,  -6.72938926e-02, 
              2.16420850e+01,   2.54350768e+01,  -1.30582557e-01,   2.10858788e+01,   2.23437853e+01, 
              4.55999575e+00,   1.78241262e+01,   2.70939017e+01,   4.65896240e+00,   1.76559170e+01, 
              2.33577561e+01,   9.00563830e+00,   2.09184559e+01,   2.81371623e+01,   9.56883125e+00, 
              1.93646816e+01,   2.44865177e+01,   1.47577936e+01,   1.73528459e+01,   2.98529097e+01, 
              1.43450165e+01,   1.65320816e+01,   2.66235470e+01,   1.87311523e+01,   1.93292192e+01, 
              3.15153684e+01,   1.94284840e+01,   1.87943999e+01,   2.86378104e+01,   2.40491832e+01, 
              1.60899597e+01,   3.33486955e+01,   2.39608438e+01,   1.58910444e+01,   2.98274609e+01, 
              2.90384936e+01,   1.89593440e+01,   3.46824045e+01,   2.90969215e+01,   1.72470427e+01, 
              3.18223467e+01,   3.46770271e+01,   1.61126780e+01,   3.69383179e+01,   3.34496113e+01, 
              1.43048230e+01,   3.32721983e+01,   3.91902381e+01,   1.78980007e+01,   3.77402050e+01, 
              3.86278308e+01,   1.70969104e+01,   3.53328836e+01,   4.36240362e+01,   1.38314565e+01, 
              4.02705925e+01,   4.47202380e+01,   1.27686575e+01,   3.76346095e+01,   4.96192620e+01, 
              1.57978295e+01,   4.27896090e+01,   4.98908154e+01,   1.56312517e+01,   3.88699301e+01, 
              5.41324580e+01,   1.25664101e+01,   4.41876602e+01,   5.39663939e+01,   2.41487685e+01, 
              5.09833606e-01,   2.39265768e-01,   2.69729832e+01,   5.83034129e+00,   2.64667309e-01, 
              2.63301921e+01,   2.02600291e+00,   5.04472800e+00,   2.31050887e+01,   7.06823644e+00, 
              5.46185306e+00,   2.25996503e+01,   2.41924200e+00,   1.02189168e+01,   2.55390114e+01, 
              7.58071224e+00,   1.04111298e+01,   2.49693405e+01,   4.69250877e+00,   1.49152159e+01, 
              2.23817740e+01,   9.90596440e+00,   1.49296269e+01,   2.13871452e+01,   6.37644174e+00, 
              1.96602893e+01,   2.49063613e+01,   1.11327719e+01,   1.99310814e+01,   2.36411620e+01, 
              8.17465747e+00,   2.55707657e+01,   2.10206973e+01,   1.32238054e+01,   2.48593052e+01, 
              2.01878090e+01,   9.95132262e+00,   3.02619859e+01,   2.35216272e+01,   1.47810430e+01, 
              2.97263839e+01,   2.19407927e+01,   1.25929551e+01,   3.49885928e+01,   1.94128642e+01, 
              1.72067734e+01,   3.41448725e+01,   1.86876512e+01,   1.34120582e+01,   3.97064871e+01, 
              2.23776333e+01,   1.76229539e+01,   3.91332173e+01,   2.17881470e+01,   1.49517601e+01, 
              4.46712781e+01,   1.89986984e+01,   2.01376993e+01,   4.39427422e+01,   1.83282923e+01, 
              1.70770592e+01,   4.94950606e+01,   2.15976228e+01,   2.23140033e+01,   4.90251981e+01, 
              2.09066171e+01,   1.85703810e+01,   5.42951302e+01,   1.83898943e+01,   2.33832322e+01, 
              5.39647456e+01,   2.33705222e+01,   1.07413775e+01,  -4.06331720e-01,   2.64441422e+01, 
              1.53528781e+01,  -9.62532829e-01,   2.62036343e+01,   1.23014017e+01,   4.72712146e+00, 
              2.33649918e+01,   1.71640995e+01,   4.60302868e+00,   2.33040306e+01,   1.30565361e+01, 
              9.77846625e+00,   2.59623768e+01,   1.83335064e+01,   9.39942811e+00,   2.56166140e+01, 
              1.44390866e+01,   1.50431209e+01,   2.23422309e+01,   1.97165885e+01,   1.44901401e+01, 
              2.19455484e+01,   1.63854598e+01,   1.90959552e+01,   2.46791793e+01,   2.16195278e+01, 
              1.96028092e+01,   2.42002542e+01,   1.84528020e+01,   2.45190830e+01,   2.12109031e+01, 
              2.30351914e+01,   2.49137519e+01,   2.08090533e+01,   2.00054769e+01,   2.95622621e+01, 
              2.41829603e+01,   2.47976571e+01,   2.99009828e+01,   2.31499540e+01,   2.17892313e+01, 
              3.41812364e+01,   2.00988019e+01,   2.66348009e+01,   3.39767261e+01,   1.95602302e+01, 
              2.29184829e+01,   3.89420817e+01,   2.21305071e+01,   2.78874244e+01,   3.87558142e+01, 
              2.22499791e+01,   2.52102129e+01,   4.40893490e+01,   1.95885945e+01,   3.03190982e+01, 
              4.39037318e+01,   1.85822942e+01,   2.73199314e+01,   4.91476778e+01,   2.15939988e+01, 