<simulation>
   <total_steps>100000</total_steps>
   <step>3999</step>
   <output prefix=''>
      <properties stride='2' shape='(9)' filename='lj-nst.out'>
       [ step, time{picosecond}, conserved, temperature{kelvin}, kinetic_md, 
         potential, pressure_md{megapascal}, volume, cell_h ]
      </properties>
      <trajectory format='pdb' filename='lj-nst.pos' stride='20'>positions</trajectory>
      <checkpoint stride='2000' filename='lj-nst.restart'>3</checkpoint>
   </output>
   <prng>
      <state shape='(624)'>
       [ 3106992879, 3512652716, 1968173969, 3459704830, 2419200423, 
         2392748975, 664817629, 358139267, 1461028422, 2840507670, 
         398575074, 4083942642, 2975549603, 1192230155, 1675873731, 
         2828296210, 1029651296, 305138170, 463352556, 1084527258, 
         2721673775, 3498947158, 528866806, 1303966853, 2158049607, 
         531718920, 1151862867, 682884996, 2808480591, 3621796666, 
         2455267702, 544130952, 3466915785, 1280917246, 4089122703, 
         2024611881, 792773908, 3458312721, 4128191074, 2104416632, 
         1823439412, 4256314440, 4040875219, 4192752919, 3323109242, 
         3733099242, 3312649931, 3580631072, 127996847, 1456798107, 
         317207914, 3278569601, 653517038, 176845464, 3362143939, 
         64681612, 2058820367, 1051257919, 3909895229, 3933355533, 
         787410948, 2227517806, 1719739364, 2120177707, 3072142575, 
         1679892649, 366699915, 3850616328, 583337446, 859983696, 
         569245673, 3383862970, 627930166, 2414414296, 1632091298, 
         3817316722, 808556437, 1061195247, 2565292543, 260647902, 
         4214077470, 1637850291, 1820402203, 2239633904, 1346758824, 
         1308016355, 3869452234, 3896433077, 1832859556, 3474465262, 
         1007219852, 2256150604, 1988651921, 494148205, 3575500427, 
         509232313, 2094877578, 1749989352, 2966857068, 251623945, 
         2320057327, 2939827053, 114480436, 849952269, 3240716160, 
         210277885, 1278800023, 1619413518, 820680093, 3541417099, 
         4249735139, 3836067022, 941595738, 3138118349, 2254399714, 
         720001615, 2553508921, 2539441111, 3153548400, 928676530, 
         2924740982, 2259852507, 3723144965, 1041858456, 817390170, 
         1017113781, 2646957868, 2094834587, 2601720748, 136639719, 
         3710145497, 1497860499, 2756377999, 3670396300, 3909979614, 
         2486613472, 2239587605, 3128675164, 903678009, 896429751, 
         3680515240, 2146601699, 2337340494, 834589020, 2633762230, 
         3408941306, 2289641877, 1237460455, 4259398105, 987301800, 
         836304065, 298473307, 85139129, 812712801, 1750987841, 
         747133030, 198793445, 794875596, 2674979247, 2452558579, 
         524092765, 255076990, 221828274, 3810566958, 4229015486, 
         2287894060, 1468354828, 49653428, 4146131990, 1199837433, 
         1241132293, 2064866394, 620319875, 1984076744, 900685725, 
         2180387641, 2846568641, 853120840, 3499490736, 1327763664, 
         2951573419, 2335733561, 2974964389, 3237854352, 97063901, 
         3268716471, 1857509445, 2003298797, 912129000, 3933344835, 
         3181830969, 1025357635, 67281062, 1944793419, 498210675, 
         2400825993, 473385338, 1685498050, 3505024991, 498270701, 
         653547582, 1934607356, 861560820, 3092539515, 1363116757, 
         3808071487, 3580865518, 2610485587, 1952010797, 1914571832, 
         2444044494, 1883235830, 4102925762, 4140498572, 4273333172, 
         3364790504, 3787318161, 1217275399, 776156506, 3409698881, 
         2353578110, 271661890, 1997645857, 3231460379, 2688780827, 
         779829882, 651423471, 1195966145, 4276402749, 2759186663, 
         710954658, 3732060624, 4006085612, 1362448136, 815867819, 
         3398474121, 1283390590, 2017688423, 2497394703, 1878625781, 
         470378248, 3972277352, 3135645753, 1061670161, 100912538, 
         104688327, 3804014918, 2297846746, 2634611063, 410046400, 
         2412723759, 10956950, 4184857103, 3809198641, 3121592315, 
         3698056725, 3523630201, 2744372713, 2420518434, 3579444887, 
         2544300491, 2160023677, 571156757, 885415053, 3117026882, 
         3551410832, 198444403, 2733363218, 840063172, 696061503, 
         97036800, 721448631, 2708818132, 1160108092, 2202579652, 
         1066570634, 2094897686, 2322494344, 1440425355, 2456987041, 
         179480477, 39502030, 3527291891, 48858246, 2146846762, 
         3594595575, 3261365549, 1818024981, 885336136, 2504664110, 
         1316569362, 3426642960, 3726042116, 1268889000, 589404168, 
         2194839599, 2875337756, 2562914034, 1590874698, 2597333588, 
         1932695259, 80513635, 1796081149, 3329119104, 4289563266, 
         2930366237, 3483244758, 2252821123, 413934221, 2210413573, 
         3514852009, 3121281557, 932445580, 1411792344, 3719600553, 
         831015649, 1590846332, 2709960407, 2608947476, 1071512535, 
         318069879, 77704201, 2001368089, 1658531689, 1403493554, 
         1905403190, 4169995147, 1561319625, 3259144252, 2658293974, 
         3850188155, 250549263, 369980730, 1554230848, 2246710900, 
         1940054832, 594975705, 2733645073, 878590763, 4129954892, 
         841890183, 1336063005, 3325216366, 1784067753, 2936856784, 
         1298444954, 3057267288, 2375355005, 2306666425, 1854746889, 
         299509182, 273665928, 965814725, 2223297452, 2205334706, 
         849477269, 1352498171, 615084823, 906813304, 3067680080, 
         1997875756, 1770933200, 3064933294, 198076141, 3043679542, 
         558535193, 3148841479, 1072506777, 973836575, 3910221758, 
         2012644294, 2031847287, 768386921, 1931143712, 3336610364, 
         2898605604, 1336629803, 697948865, 1726163931, 655764228, 
         2007744211, 592460166, 3726101338, 3120279201, 888068495, 
         2414779305, 1303586235, 1063582047, 169595079, 2283569655, 
         3095693811, 869601933, 1003498262, 1657547125, 1615905660, 
         847116730, 4161075145, 3138548653, 3659155917, 3970287447, 
         131240773, 4123849977, 3333904907, 104564088, 2503622527, 
         3597375634, 3464164714, 1201340659, 1554471998, 3894120168, 
         955907693, 908176132, 1775264010, 1785696601, 179159946, 
         4040332704, 3109129860, 2087127813, 3770473234, 2646079061, 
         2743962879, 906311096, 3783615700, 2603464194, 3362122382, 
         2268927625, 638228791, 917876334, 4145495665, 713673754, 
         1093661109, 1464294931, 2191780602, 1951539115, 1780851145, 
         1556707437, 2074551487, 2947941941, 1988894040, 328720966, 
         821613841, 2646838571, 1274222045, 1159726435, 3648448823, 
         524889161, 2943262600, 2840941862, 1156720779, 3680212182, 
         3396731526, 2624236515, 1827914401, 1414603882, 786583399, 
         247137044, 4222321495, 3165955133, 2536531983, 376151360, 
         1132600140, 743904589, 2545887707, 1963767348, 527751461, 
         2246164503, 1212102835, 1849537801, 2787667356, 2648750498, 
         1248596606, 559862297, 1021068225, 69516901, 3943215708, 
         1273334404, 2058096014, 2647149820, 3804877524, 1508978049, 
         2126855663, 1007287422, 1152426734, 1234465751, 451356528, 
         1401001837, 537846025, 3873675760, 1612660609, 1460336092, 
         1103795633, 1636840342, 2583239520, 894941139, 176703289, 
         2849333168, 3975664513, 1083319915, 1123679549, 626939317, 
         2018313381, 1201875806, 2601629470, 2933088892, 3334601118, 
         1962426066, 1609455577, 3514175298, 3328185940, 2215831769, 
         372092300, 2009115550, 1134048268, 549949014, 3662013133, 
         940623214, 1903936592, 1687928098, 317813478, 1839641548, 
         2894494455, 2908096106, 2462566477, 3240106587, 1723429565, 
         3286573338, 3609920414, 1032908486, 3566223431, 2523141764, 
         2609520634, 3084409587, 570170602, 3840035539, 2410701347, 
         1473310533, 3392092380, 1189620640, 1332613276, 2247364088, 
         2164969985, 3565019526, 3845570241, 2801377592, 593049, 
         736067112, 154179420, 937967750, 727134497, 4221575592, 
         2245019645, 3768663385, 1130781873, 2628242191, 921626577, 
         822268432, 170278317, 2421045386, 3315383465, 1977147640, 
         2032975044, 1007042555, 693935584, 2506564773, 292555524, 
         3318702915, 3476430319, 4270448345, 2202937201, 2232796988, 
         3639142815, 2006597457, 2283021681, 1270689039, 964931896, 
         180233511, 4178752200, 3667771194, 1624372130, 3438246483, 
         3115969757, 3675392952, 1561500523, 2202931541, 1105449105, 
         330457412, 3367516939, 3982335195, 2362306181, 1793357983, 
         562726156, 2474608811, 3431693009, 1405865727, 163925395, 
         3527940492, 770670593, 2322573373, 739056813, 1786465051, 
         2899916706, 296177094, 267726412, 4145462732, 2312960620, 
         3931849849, 3890508589, 1069307312, 3941878903, 2943191029, 
         210215178, 972012998, 419570586, 3871008754, 2042814174, 
         696838320, 2322380961, 2932296846, 4084919309, 2798598965, 
         2475683856, 1803008650, 1578702710, 2106867297 ]
      </state>
      <seed>3348</seed>
      <set_pos>132</set_pos>
   </prng>
   <ffsocket mode='unix' name='lj'>
      <address>lj_nst</address>
   </ffsocket>
   <system>
      <beads natoms='432' nbeads='1'>
         <q shape='(1, 1296)'>
          [   6.51457148e-01,  -3.63263096e-01,  -5.00377194e-01,   2.37094624e+00,   5.02631492e+00, 
              5.35576058e-01,   2.65750092e+00,   1.29210850e+00,   4.89155877e+00,  -1.53428814e+00, 
              6.01909318e+00,   4.73031753e+00,  -8.12435075e-01,   1.82147541e+00,   8.91734576e+00, 
              3.40517216e+00,   6.07503354e+00,   8.67148089e+00,   3.00661222e+00,   1.51230862e+00, 
              1.30585047e+01,  -6.66061649e-01,   5.84099267e+00,   1.32805379e+01,  -1.36364015e+00, 
              2.45550271e+00,   1.73115437e+01,   3.62829064e+00,   5.60510798e+00,   1.71955309e+01, 
              3.58962300e+00,   2.25334858e+00,   2.17715606e+01,  -5.81996441e-01,   6.52246517e+00, 
              2.12480878e+01,  -4.88011525e-01,   2.73536197e+00,   2.57127372e+01,   1.25076935e+00, 
              8.20492596e+00,   2.65384258e+01,   3.70709224e-01,   4.24763367e+00,   3.10011201e+01, 
             -3.38482127e+00,   8.53367424e+00,   3.11293204e+01,  -3.01941369e+00,   4.96030850e+00, 
              3.55294529e+01,   1.52160607e+00,   8.36153745e+00,   3.48988702e+01,   9.69364807e-01, 
              4.80613468e+00,   3.92762296e+01,  -2.98148846e+00,   9.13198520e+00,   3.92791419e+01, 
             -2.86615787e+00,   5.37925106e+00,   4.39749672e+01,   1.54587348e+00,   8.94039815e+00, 
              4.31517796e+01,   1.65124049e+00,   4.60545806e+00,   4.80786895e+01,  -2.73364277e+00, 
              9.65163299e+00,   4.82983455e+01,  -9.47780009e-01,   9.65622612e+00,   6.96889659e-01, 
              3.59998499e+00,   1.28926547e+01,   3.66210408e-02,   2.94610421e+00,   9.56097990e+00, 
              4.49672492e+00,  -1.04829703e+00,   1.35849252e+01,   5.25739540e+00,  -9.05913754e-01, 
              9.61104351e+00,   9.10748734e+00,   3.33094818e+00,   1.40267697e+01,   8.92400593e+00, 
              3.81377162e+00,   9.49062557e+00,   1.33060879e+01,  -1.00607791e+00,   1.43384682e+01, 
              1.24533987e+01,  -6.16723399e-01,   1.03342132e+01,   1.68789369e+01,   1.06942497e+00, 
              1.56134702e+01,   1.77686695e+01,   1.68476062e+00,   1.18832099e+01,   2.21785991e+01, 
             -2.96402838e+00,   1.64711357e+01,   2.22046745e+01,  -2.39921151e+00,   1.27673936e+01, 
              2.63205413e+01,   1.86100998e+00,   1.61765055e+01,   2.62662305e+01,   1.28856640e+00, 
              1.17350988e+01,   3.05909597e+01,  -2.33339154e+00,   1.65683364e+01,   3.03119115e+01, 
             -2.96542610e+00,   1.31101913e+01,   3.47769343e+01,   1.63820684e+00,   1.64248935e+01, 
              3.40491040e+01,   1.41259958e+00,   1.26328483e+01,   3.85255107e+01,  -2.07004900e+00, 
              1.70650177e+01,   3.96629441e+01,  -2.35967549e+00,   1.33092076e+01,   4.35943712e+01, 
             -2.16762227e-01,   1.92013743e+01,   4.41367792e+01,  -7.72396298e-01,   1.52045390e+01, 
              4.89871875e+01,  -3.81478896e+00,   1.99743694e+01,   4.89336730e+01,  -2.08776526e-01, 
              1.75675713e+01,  -1.70955809e-01,   4.14046692e+00,   2.11510079e+01,  -1.61353586e-01, 
              3.36680795e+00,   1.72034802e+01,   3.87836891e+00,   4.57471392e-01,   2.21500802e+01, 
              3.52134005e+00,   3.73985044e-03,   1.82400896e+01,   8.03701401e+00,   1.49849475e+00, 
              2.36583124e+01,   9.43170012e+00,   1.16270298e+00,   1.97524271e+01,   1.35840720e+01, 
             -2.81453645e+00,   2.46317684e+01,   1.35935191e+01,  -2.86865127e+00,   2.06155080e+01, 
              1.75895030e+01,   1.60456870e+00,   2.47241117e+01,   1.74788217e+01,   1.75701951e+00, 
              1.94792665e+01,   2.18914620e+01,  -1.61787439e+00,   2.47676129e+01,   2.18980236e+01, 
             -2.08019391e+00,   2.09201916e+01,   2.62105234e+01,   2.33767521e+00,   2.48570521e+01, 
              2.58792834e+01,   1.96214838e+00,   2.04564943e+01,   3.00958368e+01,  -1.59944864e+00, 
              2.47451132e+01,   2.96702599e+01,  -2.35138194e+00,   2.05273087e+01,   3.51335957e+01, 
             -4.79237857e-01,   2.72195212e+01,   3.56847764e+01,  -5.96592071e-01,   2.28020131e+01, 
              3.99355852e+01,  -4.54435853e+00,   2.71328987e+01,   4.02021180e+01,  -3.91950154e+00, 
              2.33636008e+01,   4.43512416e+01,   8.67238696e-04,   2.76076039e+01,   4.41104733e+01, 
              1.32891922e-01,   2.37096153e+01,   4.80165548e+01,  -3.93496090e+00,   2.81557058e+01, 
              4.84587756e+01,   6.65967411e+00,   5.59102409e-01,   5.31626941e-01,   1.08551682e+01, 
              4.76620021e+00,   1.04944009e-01,   1.06467659e+01,   6.19926146e-01,   4.58876896e+00, 
              7.47040959e+00,   5.13610004e+00,   4.75952284e+00,   6.92514354e+00,   1.16602727e+00, 
              8.87402414e+00,   1.14132122e+01,   4.89697347e+00,   8.89395634e+00,   1.12382821e+01, 
              7.17651812e-01,   1.31663268e+01,   7.44561489e+00,   5.50153742e+00,   1.29036946e+01, 
              7.27350084e+00,   1.37601332e+00,   1.71637507e+01,   9.28398159e+00,   6.99653737e+00, 
              1.84433619e+01,   9.02012152e+00,   2.79590285e+00,   2.25326763e+01,   5.46480336e+00, 
              7.32679190e+00,   2.27233998e+01,   5.00275014e+00,   3.76977049e+00,   2.72767271e+01, 
              9.85539349e+00,   7.38562753e+00,   2.65910250e+01,   9.19213401e+00,   3.25018940e+00, 
              3.08049318e+01,   5.53726783e+00,   8.28450463e+00,   3.03691747e+01,   5.04169210e+00, 
              4.32199303e+00,   3.43393031e+01,   9.49375114e+00,   7.94674518e+00,   3.43107975e+01, 
              9.19336498e+00,   4.53640196e+00,   3.87791841e+01,   5.43839722e+00,   8.64760269e+00, 
              3.88732453e+01,   5.29015778e+00,   4.70576387e+00,   4.31629476e+01,   6.96700982e+00, 
              1.00323691e+01,   4.40975397e+01,   7.29816808e+00,   5.85468574e+00,   4.87537661e+01, 
              3.26881126e+00,   1.08017310e+01,   4.84750511e+01,   7.20978546e+00,   8.43686504e+00, 
              5.88954828e-01,   1.09459237e+01,   1.22011373e+01,  -4.62144539e-01,   1.14122418e+01, 
              8.41889313e+00,   4.14330795e+00,   7.49996551e+00,   1.29257825e+01,   3.93833376e+00, 
              7.76095283e+00,   9.40822617e+00,   8.27037456e+00,   9.36922999e+00,   1.50443130e+01, 
              9.28615990e+00,   9.09769704e+00,   1.11384366e+01,   1.40500767e+01,   5.72151609e+00, 
              1.56176335e+01,   1.39174528e+01,   5.46022800e+00,   1.15966366e+01,   1.81522438e+01, 
              9.86897831e+00,   1.53592954e+01,   1.76708860e+01,   1.00832555e+01,   1.15039390e+01, 
              2.20842697e+01,   6.17905776e+00,   1.59634564e+01,   2.15939777e+01,   6.06185019e+00, 
              1.22311268e+01,   2.59918272e+01,   1.03372604e+01,   1.60124420e+01,   2.62199283e+01, 
              1.02661580e+01,   1.16179271e+01,   3.01288320e+01,   6.09365529e+00,   1.56958119e+01, 
              3.03338992e+01,   5.60798541e+00,   1.24140379e+01,   3.45396955e+01,   7.66701132e+00, 
              1.77461466e+01,   3.56597454e+01,   7.33162962e+00,   1.42363401e+01,   3.95405060e+01, 
              3.47885827e+00,   1.86113705e+01,   3.96755953e+01,   3.19119787e+00,   1.42393858e+01, 
              4.41576528e+01,   7.78761495e+00,   1.92260474e+01,   4.34763654e+01,   7.89757556e+00, 
              1.41882067e+01,   4.84814481e+01,   3.99406782e+00,   1.84723001e+01,   4.79376242e+01, 
              7.69041744e+00,   1.68593952e+01,  -4.95776392e-01,   9.67953736e+00,   2.26630644e+01, 
              4.02128368e-01,   9.48622558e+00,   1.91969537e+01,   4.92290326e+00,   5.57684941e+00, 
              2.34273601e+01,   4.81168010e+00,   5.63167880e+00,   1.92369293e+01,   8.90763930e+00, 
              9.81949955e+00,   2.32791379e+01,   8.93739933e+00,   9.43199455e+00,   1.99283231e+01, 
              1.40371930e+01,   5.62063152e+00,   2.39948473e+01,   1.31663525e+01,   5.22953066e+00, 
              2.00519138e+01,   1.74698859e+01,   1.00709678e+01,   2.39347567e+01,   1.77249371e+01, 
              1.00054938e+01,   1.98528313e+01,   2.13364588e+01,   5.71833666e+00,   2.39677199e+01, 
              2.17278561e+01,   6.19802214e+00,   1.98237102e+01,   2.53858255e+01,   7.39066525e+00, 
              2.57718846e+01,   2.69102759e+01,   7.32145589e+00,   2.16746179e+01,   3.09313687e+01, 
              3.50591322e+00,   2.59529099e+01,   3.16531975e+01,   2.99708467e+00,   2.21012426e+01, 
              3.55982866e+01,   7.82184439e+00,   2.59960076e+01,   3.51498829e+01,   7.21622056e+00, 
              2.25359644e+01,   3.91906682e+01,   3.89039827e+00,   2.67814110e+01,   3.92672443e+01, 
              3.80855760e+00,   2.30622715e+01,   4.41567242e+01,   8.40966928e+00,   2.72218384e+01, 
              4.35989169e+01,   8.50698093e+00,   2.29382220e+01,   4.79692302e+01,   4.58007275e+00, 
              2.69442401e+01,   4.82570768e+01,   1.46341813e+01,  -1.86618760e-01,  -2.68579093e-01, 
              1.88856919e+01,   3.80029120e+00,  -5.12629903e-01,   1.91693804e+01,  -4.51193982e-02, 
              3.88599792e+00,   1.50599729e+01,   4.05760309e+00,   4.12106970e+00,   1.48187421e+01, 
              2.26119563e-01,   8.15591636e+00,   1.64716321e+01,   6.16958832e+00,   9.79686295e+00, 
              1.64310337e+01,   2.54079209e+00,   1.37076205e+01,   1.28275569e+01,   6.81207144e+00, 
              1.39302234e+01,   1.30827622e+01,   2.83292924e+00,   1.82766207e+01,   1.77038846e+01, 
              6.89458328e+00,   1.77063026e+01,   1.71850549e+01,   2.74016562e+00,   2.24680824e+01, 
              1.31858781e+01,   6.95019477e+00,   2.19801107e+01,   1.31798278e+01,   2.77538397e+00, 
              2.66901593e+01,   1.78363111e+01,   7.04703193e+00,   2.57615673e+01,   1.75093921e+01, 
              2.76566297e+00,   3.05496072e+01,   1.38111780e+01,   7.22942362e+00,   3.00606987e+01, 
              1.33798546e+01,   3.59120333e+00,   3.42613707e+01,   1.54646467e+01,   8.60850057e+00, 
              3.58638473e+01,   1.50312198e+01,   5.13487132e+00,   3.97467355e+01,   1.11557979e+01, 
              9.82595973e+00,   3.94494048e+01,   1.08789815e+01,   5.81994557e+00,   4.45468879e+01, 
              1.53270813e+01,   9.33731403e+00,   4.37989026e+01,   1.51771964e+01,   5.69582300e+00, 
              4.78811681e+01,   1.13591845e+01,   9.86525571e+00,   4.83849944e+01,   1.54050839e+01, 
              8.42890432e+00,  -8.60655964e-01,   1.68839688e+01,   1.39613777e+01,   4.24403185e-01, 
              1.66597689e+01,   1.02189398e+01,   4.62492002e+00,   1.25573675e+01,   1.38924310e+01, 
              4.95697503e+00,   1.30559204e+01,   1.03855479e+01,   9.28548609e+00,   1.71065980e+01, 
              1.47426833e+01,   8.95722978e+00,   1.69221602e+01,   1.10731206e+01,   1.34920575e+01, 
              1.34000062e+01,   1.55124348e+01,   1.38334469e+01,   1.37921926e+01,   1.08379771e+01, 
              1.79449072e+01,   1.78418912e+01,   1.52315536e+01,   1.74280328e+01,   1.77879203e+01, 
              1.08109084e+01,   2.18279281e+01,   1.41303389e+01,   1.53463244e+01,   2.14931672e+01, 
              1.39881080e+01,   1.15339760e+01,   2.61734414e+01,   1.59837696e+01,   1.68723594e+01, 
              2.74560285e+01,   1.56172584e+01,   1.31973503e+01,   3.16063472e+01,   1.17132796e+01, 
              1.80123548e+01,   3.19816774e+01,   1.18421360e+01,   1.37447270e+01,   3.56497618e+01, 
              1.62841036e+01,   1.74574498e+01,   3.52564578e+01,   1.56289263e+01,   1.35558360e+01, 
              3.96053334e+01,   1.20094654e+01,   1.79567452e+01,   3.90721209e+01,   1.17387596e+01, 
              1.42550211e+01,   4.34255640e+01,   1.63216711e+01,   1.80645321e+01,   4.25903624e+01, 
              1.58912405e+01,   1.42026055e+01,   4.78172317e+01,   1.22617332e+01,   1.84691261e+01, 
              4.75919799e+01,   1.30908109e+01,   1.78467458e+01,   6.35292511e-01,   1.75422623e+01, 
              2.20670626e+01,  -3.90494910e-02,   1.69999377e+01,   1.81815260e+01,   4.60576717e+00, 
              1.40287656e+01,   2.27150064e+01,   4.04689152e+00,   1.33942430e+01,   1.88976149e+01, 
              9.13094949e+00,   1.78513868e+01,   2.24931487e+01,   8.29655487e+00,   1.82750889e+01, 
              1.85769309e+01,   1.26453220e+01,   1.46896128e+01,   2.29659878e+01,   1.31458447e+01, 
              1.40509118e+01,   1.93948322e+01,   1.72308736e+01,   1.56193394e+01,   2.50648201e+01, 
              1.86017735e+01,   1.59845961e+01,   2.10124064e+01,   2.28902550e+01,   1.19275613e+01, 
              2.54837647e+01,   2.27342308e+01,   1.15612714e+01,   2.13826451e+01,   2.66981110e+01, 
              1.62249579e+01,   2.51956283e+01,   2.69337022e+01,   1.61733918e+01,   2.12907339e+01, 
              3.09338834e+01,   1.21115499e+01,   2.57435216e+01,   3.10213102e+01,   1.20561698e+01, 
              2.21662918e+01,   3.53419395e+01,   1.64642613e+01,   2.54516731e+01,   3.49854786e+01, 
              1.66494062e+01,   2.15457365e+01,   3.86039346e+01,   1.24346786e+01,   2.59865000e+01, 
              3.92545993e+01,   1.23136185e+01,   2.20458960e+01,   4.31035406e+01,   1.40608824e+01, 
              2.81165143e+01,   4.39982045e+01,   1.35888655e+01,   2.39989865e+01,   4.90628993e+01, 
              1.01974130e+01,   2.82743764e+01,   4.87818444e+01,   2.27331081e+01,  -6.72883330e-01, 
             -1.23999232e+00,   2.38597224e+01,   5.28634846e+00,   1.22485382e+00,   2.41312790e+01, 
              1.12931249e+00,   4.90048578e+00,   2.00593053e+01,   6.34005295e+00,   5.39746823e+00, 
              2.04400933e+01,   2.20588684e+00,   9.35347887e+00,   2.48177262e+01,   5.49371578e+00, 
              8.58522024e+00,   2.46048953e+01,   1.73851124e+00,   1.30313442e+01,   2.10092255e+01, 
              5.98980294e+00,   1.27984641e+01,   2.09658498e+01,   2.16707710e+00,   1.78235536e+01, 
              2.55344656e+01,   5.86498737e+00,   1.71642897e+01,   2.55667020e+01,   2.16828423e+00, 
              2.13173406e+01,   2.19151910e+01,   6.19662741e+00,   2.17092782e+01,   2.14603929e+01, 
              2.58845399e+00,   2.68073757e+01,   2.32008691e+01,   8.22827223e+00,   2.73157601e+01, 
              2.31816025e+01,   3.89588557e+00,   3.18725787e+01,   1.92149548e+01,   8.84461566e+00, 
              3.17239870e+01,   1.93752420e+01,   4.64242494e+00,   3.57971995e+01,   2.37671207e+01, 
              8.50935291e+00,   3.52435638e+01,   2.34724055e+01,   4.37965248e+00,   3.95770879e+01, 
              2.02316383e+01,   8.93031142e+00,   3.94450158e+01,   1.93232777e+01,   5.41764895e+00, 
              4.39228079e+01,   2.40014036e+01,   9.10733921e+00,   4.26821934e+01,   2.38020933e+01, 
              5.45961714e+00,   4.71908675e+01,   1.99476584e+01,   9.48902566e+00,   4.78647273e+01, 
              2.07674310e+01,   9.72182960e+00,   6.44274725e-01,   2.51624036e+01,   1.32558938e+01, 
              3.59798543e-01,   2.55949232e+01,   9.45220249e+00,   4.40588695e+00,   2.13165410e+01, 
              1.35315677e+01,   4.58143276e+00,   2.14769233e+01,   1.05508717e+01,   8.76511829e+00, 
              2.60293984e+01,   1.41630293e+01,   8.19184092e+00,   2.54494739e+01,   9.89607036e+00, 
              1.33675433e+01,   2.21554595e+01,   1.43957219e+01,   1.23697936e+01,   2.16697859e+01, 
              1.07237881e+01,   1.77666288e+01,   2.35542290e+01,   1.62258752e+01,   1.80610703e+01, 
              2.32518127e+01,   1.17720901e+01,   2.29775215e+01,   2.01131046e+01,   1.68167309e+01, 
              2.27976318e+01,   1.98860011e+01,   1.27718559e+01,   2.74038007e+01,   2.39244303e+01, 
              1.61137047e+01,   2.66309622e+01,   2.39332436e+01,   1.23398114e+01,   3.11050116e+01, 
              2.01049586e+01,   1.67433798e+01,   3.11310330e+01,   1.96571217e+01,   1.26823485e+01, 
              3.56452704e+01,   2.47094027e+01,   1.67138240e+01,   3.44279861e+01,   2.43435089e+01, 
              1.33402239e+01,   3.91806080e+01,   2.09811298e+01,   1.76362703e+01,   3.88887824e+01, 
              2.03440700e+01,   1.36840645e+01,   4.33571383e+01,   2.20042897e+01,   1.91130944e+01, 
              4.43771802e+01,   2.11103247e+01,   1.50851468e+01,   4.94348382e+01,   1.78845914e+01, 
              1.95342707e+01,   4.91108575e+01,   2.12769356e+01,   1.73853910e+01,   6.28758739e-01, 
              2.55271257e+01,   2.16753803e+01,  -1.10984359e+00,   2.61585843e+01,   1.77306030e+01, 
              3.83766829e+00,   2.18673753e+01,   2.23938012e+01,   3.29660246e+00,   2.19917460e+01, 
              1.88184536e+01,   8.13178344e+00,   2.31954324e+01,   2.40381162e+01,   9.16979356e+00, 
              2.34957839e+01,   2.00459259e+01,   1.31965275e+01,   1.99782165e+01,   2.41550013e+01, 
              1.37472356e+01,   1.95431458e+01,   2.02261132e+01,   1.78938924e+01,   2.34846957e+01, 
              2.41761942e+01,   1.75293491e+01,   2.39117982e+01,   2.08817370e+01,   2.21650307e+01, 
              1.99323674e+01,   2.50406940e+01,   2.22057314e+01,   2.05150246e+01,   2.06419078e+01, 
              2.67957392e+01,   2.45179893e+01,   2.47156695e+01,   2.62294527e+01,   2.46394685e+01, 
              2.04870100e+01,   3.02365027e+01,   2.06065389e+01,   2.47478094e+01,   3.04915056e+01, 
              2.08266021e+01,   2.10332485e+01,   3.45169895e+01,   2.21379801e+01,   2.69093912e+01, 
              3.60312712e+01,   2.16369886e+01,   2.31589020e+01,   4.01295414e+01,   1.77848346e+01, 
              2.74269225e+01,   4.02236522e+01,   1.70730255e+01,   2.32581182e+01,   4.44948040e+01, 
              2.21150619e+01,   2.73175564e+01,   4.38305298e+01,   2.16983153e+01,   2.35301318e+01, 
              4.79416922e+01,   1.80147712e+01,   2.80014201e+01,   4.79796678e+01,   2.89145287e+01, 
              1.42570738e-01,  -1.38389473e-01,   3.30206251e+01,   4.36108478e+00,  -2.65784308e-01, 
              3.29857896e+01,   3.53388209e-02,   3.85406919e+00,   2.89551784e+01,   4.87919219e+00, 
              3.80465123e+00,   2.87918584e+01,   9.45294110e-01,   8.84678721e+00,   3.32808108e+01, 
              4.85586094e+00,   8.88669981e+00,   3.30215409e+01,   9.87821443e-01,   1.26979146e+01, 
              2.90414291e+01,   5.34157088e+00,   1.29257336e+01,   2.89372879e+01,   1.50851055e+00, 
              1.69708278e+01,   3.09055712e+01,   7.07356411e+00,   1.76054640e+01,   3.13352100e+01, 
              2.86736810e+00,   2.26049341e+01,   2.72193254e+01,   7.41504439e+00,   2.26587530e+01, 
              2.75150634e+01,   3.50216887e+00,   2.74318550e+01,   3.16974000e+01,   7.14087764e+00, 
              2.61600790e+01,   3.14163708e+01,   2.99548422e+00,   3.11998122e+01,   2.79105298e+01, 
              8.00890278e+00,   3.12145424e+01,   2.78584267e+01,   3.75600406e+00,   3.55336408e+01, 
              3.21890926e+01,   7.49739754e+00,   3.47954682e+01,   3.24072986e+01,   3.47598389e+00, 
              3.95847207e+01,   2.82018409e+01,   8.16651321e+00,   3.88344447e+01,   2.83753754e+01, 
              4.75820545e+00,   4.33342639e+01,   2.98072717e+01,   9.99694279e+00,   4.41420098e+01, 
              2.91807012e+01,   6.28459960e+00,   4.85525572e+01,   2.51342601e+01,   1.09826101e+01, 
              4.89524291e+01,   2.90701564e+01,   8.78709580e+00,  -1.62472424e-01,   3.30334538e+01, 
              1.30160360e+01,  -1.54425682e-01,   3.30029157e+01,   8.54570072e+00,   4.26976311e+00, 
              2.96410731e+01,   1.32824297e+01,   4.07735452e+00,   2.90326350e+01,   9.40006959e+00, 
              9.05653932e+00,   3.14918145e+01,   1.54786740e+01,   9.42027303e+00,   3.10001197e+01, 
              1.07569042e+01,   1.38203354e+01,   2.73537036e+01,   1.56397289e+01,   1.33676513e+01, 
              2.71398056e+01,   1.16329178e+01,   1.86122282e+01,   3.12231364e+01,   1.56895777e+01, 
              1.71034891e+01,   3.15765771e+01,   1.16436577e+01,   2.20654193e+01,   2.76118993e+01, 
              1.62718659e+01,   2.18822362e+01,   2.77575162e+01,   1.13844396e+01,   2.61562783e+01, 
              3.25199302e+01,   1.57519596e+01,   2.55195086e+01,   3.24841813e+01,   1.15898628e+01, 
              2.99830853e+01,   2.87673962e+01,   1.60520372e+01,   3.02968233e+01,   2.82377430e+01, 
              1.23632064e+01,   3.46160497e+01,   2.98346401e+01,   1.82288307e+01,   3.59567734e+01, 
              2.99983289e+01,   1.39649765e+01,   4.07554272e+01,   2.59482318e+01,   1.90705391e+01, 
              4.01913828e+01,   2.53065396e+01,   1.47770214e+01,   4.45633574e+01,   3.03792586e+01, 