<simulation>
   <total_steps>100000</total_steps>
   <step>1999</step>
   <output prefix=''>
      <properties stride='2' shape='(9)' filename='lj-nst.out'>
       [ step, time{picosecond}, conserved, temperature{kelvin}, kinetic_md, 
         potential, pressure_md{megapascal}, volume, cell_h ]
      </properties>
      <trajectory format='pdb' filename='lj-nst.pos' stride='20'>positions</trajectory>
      <checkpoint stride='2000' filename='lj-nst.restart'>2</checkpoint>
   </output>
   <prng>
      <state shape='(624)'>
       [ 3993423900, 1113419329, 334993547, 427864705, 1633525531, 
         4060417614, 1488910073, 2034593356, 2618579415, 3220592271, 
         837714229, 4172994024, 3431635592, 435352047, 3303391344, 
         3365689050, 2491746360, 1689060846, 651509418, 1842916214, 
         1905906136, 1817844367, 238316607, 3596567248, 3750836141, 
         3089170292, 385011324, 2644273894, 3623193514, 3783660269, 
         2268292652, 2214841636, 4254253193, 2279761907, 283494190, 
         729756490, 3980476213, 4203620255, 1703848683, 3305952050, 
         3984374710, 2446048426, 2827919837, 3596951878, 2387588103, 
         181518884, 1891881919, 4138212719, 1189598696, 3630100303, 
         3203055365, 1425251448, 594847213, 2365691561, 1661890937, 
         272348455, 1598686623, 3967406919, 3508975905, 3613445558, 
         1400315075, 917198673, 3025939539, 669588893, 777848797, 
         3588004450, 2408124816, 2112389403, 4121451004, 295922111, 
         3436303805, 3378149607, 3516158596, 312512082, 1143072889, 
         2582042347, 3410134199, 3012808081, 930905501, 132222035, 
         883457820, 3459152041, 842762495, 3825763864, 1808880156, 
         2748839352, 243667361, 4187339565, 1752153426, 332856498, 
         4195010334, 2751570638, 3632801504, 2367221900, 1450869425, 
         2764044607, 1028107043, 4066242628, 2461423089, 2872176099, 
         3133092645, 568933327, 784338324, 2801327387, 1011883099, 
         1387060598, 2945857520, 2527975467, 254115926, 2285238751, 
         2542496996, 2848545040, 2864171952, 3393289550, 359879329, 
         1368252022, 534865647, 1061679244, 258727289, 3429233670, 
         2321110234, 955332535, 3670043768, 3395645534, 1324774274, 
         3138404386, 3407951653, 2515783713, 1879375083, 376713662, 
         3546035224, 4273483936, 95866179, 666736888, 3983153814, 
         2620797654, 2912478697, 1561023656, 233460637, 2037569521, 
         2901989470, 4000284428, 2330945880, 3084038789, 877306497, 
         1009655105, 2351119283, 3531952815, 3041379542, 3918853668, 
         3440594895, 3864012994, 29325855, 2163916737, 1313096514, 
         3009618954, 2146714964, 654674098, 1097776111, 549323701, 
         2810173562, 4203409480, 1700249025, 1008869215, 3100486412, 
         2486163387, 3840021943, 467841128, 2819122040, 3621978612, 
         2613874483, 626733622, 2908377952, 162823356, 3189761662, 
         424341921, 987042522, 1447068851, 1756481649, 3946096961, 
         3316152643, 1009509782, 1395193997, 2196479434, 375291929, 
         2690732175, 3051920933, 775835987, 1452471044, 2457847994, 
         4105823645, 4024655799, 2156550489, 721781016, 1976479204, 
         158380117, 528131006, 1185181186, 3554354493, 833843817, 
         989471402, 3864419053, 2676254118, 2543577299, 1486612691, 
         1879128755, 3863386643, 2912051330, 278820331, 34495456, 
         4000882528, 3644153455, 3453044064, 3529887728, 1439937113, 
         376533430, 2064759261, 3530619663, 3056570759, 843058394, 
         3912469468, 1495130043, 542159306, 3933108933, 4291050568, 
         1742316557, 926488240, 2172853731, 2052283946, 2125570479, 
         3266451426, 626675487, 1740523791, 3580629734, 1083718481, 
         2680637466, 1369075215, 1047270671, 4118391162, 2956107714, 
         2216214112, 186862431, 765496798, 3010460857, 564515561, 
         3488950144, 3402477865, 3799315370, 1742579081, 697865016, 
         1225334185, 3450574049, 1823015760, 3680264808, 617489574, 
         385814394, 2471221625, 1250350974, 1906865068, 946836793, 
         2806882655, 383123634, 311204517, 3859126651, 992412884, 
         944376614, 2306574160, 2004859950, 2031455611, 3307863289, 
         2309099620, 1268710235, 649662021, 1898238913, 3529729721, 
         1044668673, 3592498435, 1373695677, 2025497733, 2058241908, 
         2052123479, 651814291, 758655770, 321916955, 1641849045, 
         111664201, 2991766995, 2956948875, 2560246683, 2040356715, 
         1752899579, 1909043148, 2541570462, 2766793770, 1541195701, 
         490597400, 2359754509, 87002598, 1068492094, 1292920074, 
         465719414, 43215403, 636755187, 1550830861, 3857602013, 
         2053177198, 2917105664, 1263139712, 1801570436, 44488884, 
         3745172866, 3597494795, 4007270721, 1123638442, 1227572977, 
         278503260, 2435728108, 3838288599, 2030638290, 1903134301, 
         1945608581, 2974760974, 1189558302, 3820314018, 2601295628, 
         2428158158, 3255619433, 3109964886, 2080144388, 2617721012, 
         806021561, 4249489678, 1934387969, 2691330413, 4098873398, 
         4278764136, 503762543, 138531089, 2991255020, 1384371347, 
         4189220589, 68943861, 914542199, 3957473015, 1713892610, 
         2716784453, 3504789480, 637534898, 563014502, 2530221550, 
         3637690795, 355521677, 3618648130, 2602446424, 3770296580, 
         71840671, 215435000, 3263397115, 84231768, 1201809801, 
         2038935656, 820561997, 1236155634, 3123051056, 1023616872, 
         1245506010, 4107006493, 936806219, 3074980838, 4091062594, 
         176216649, 1590546346, 1841958585, 3508311745, 4148932216, 
         4087312390, 4166583485, 2579120619, 2721144289, 3924092360, 
         1937520100, 2769628533, 1293891586, 217801338, 4216612009, 
         2343238300, 560850529, 1013090858, 939566838, 1303881835, 
         2595561844, 3697437483, 1110297911, 2963449105, 4267449628, 
         758510098, 560134755, 487247631, 125514479, 1050886584, 
         1780136288, 3499863514, 1539172000, 3088608591, 279615721, 
         4106668292, 2965979977, 3994529938, 3019889532, 2051888024, 
         3870013180, 3225161355, 1024062201, 2939657298, 974778850, 
         2150257011, 3759352378, 3269026321, 3214787066, 76863237, 
         1481295757, 450498242, 1572944498, 1337975905, 3390271542, 
         2001038476, 164696301, 1166412350, 2323154373, 720603707, 
         1546266444, 349646346, 1673166069, 2914575040, 1500601004, 
         588077240, 3188396871, 78997998, 1778674950, 3683436750, 
         705124789, 2178425879, 2174252762, 968777788, 220963858, 
         165068074, 896371144, 119577086, 465586437, 1509846033, 
         3325100150, 3345600532, 1846686753, 3700000315, 1304349396, 
         1981786826, 1072601873, 2057312163, 1606883028, 2053264506, 
         2273191349, 4282491180, 1202685245, 4221101042, 2518533322, 
         3506428718, 3065832894, 356167442, 4066412936, 1754613952, 
         2199142763, 3247556871, 4134174724, 2448579381, 46357759, 
         2672251936, 2631177124, 2651648514, 1534883737, 3762497703, 
         1155622933, 828086240, 3098553656, 2234945053, 559583713, 
         2045132761, 2387286494, 3274771377, 3922288231, 1935429038, 
         3066167811, 1079290209, 4132399436, 3544070452, 684748168, 
         2312567191, 1379711375, 2908350231, 1793497367, 2922700151, 
         564291161, 4143387378, 1493317641, 2806737131, 236380792, 
         3598599290, 436715668, 2006245524, 2419341579, 1942125734, 
         340697380, 3452215335, 3591261553, 3856042958, 1464478535, 
         1513277336, 3163189855, 3500154973, 2086383968, 1856608217, 
         658994318, 2225381630, 3578157671, 2777195752, 693513463, 
         2151378320, 100010868, 1365894065, 2017113706, 311683408, 
         415309929, 3658407481, 94332233, 1350840298, 1846233702, 
         2581017837, 1384144092, 1137226601, 3206650446, 1948735545, 
         4294580073, 899690051, 4026778884, 2271737723, 211857577, 
         2161571309, 3149296167, 1206559228, 2335865081, 13316493, 
         242893639, 794213474, 3271053062, 1800366656, 1039000675, 
         1226788220, 2442581586, 3183758599, 2528868006, 817323636, 
         2155968520, 3952734008, 112098147, 2108030484, 3253364399, 
         603625693, 1992606707, 430266764, 2000017074, 2484881100, 
         1270581285, 3321222891, 4012524216, 1132000567, 684805250, 
         1052246902, 220005481, 1959630912, 3916066179, 1915646728, 
         50990887, 976093582, 1130801464, 2301636289, 560006416, 
         2347665620, 17328869, 676059586, 2624200945, 1710673338, 
         2531010872, 1060782278, 3533741272, 662698121, 49163046, 
         1983377203, 2012838158, 1682282873, 2363703483, 2695203681, 
         3507033204, 3333957892, 2417430261, 781826232, 117725741, 
         1217872649, 2735791673, 4031092425, 2358772286, 3173501249, 
         890952656, 1298333022, 893173478, 3816122306, 3167991980, 
         1819986836, 1455130434, 668945092, 3012379183, 421172868, 
         3797426326, 924970642, 546971786, 375493229 ]
      </state>
      <seed>3348</seed>
      <set_pos>232</set_pos>
   </prng>
   <ffsocket mode='unix' name='lj'>
      <address>lj_nst</address>
   </ffsocket>
   <system>
      <beads natoms='432' nbeads='1'>
         <q shape='(1, 1296)'>
          [  -1.84666761e-01,  -3.04007156e-01,   2.50124304e-01,  -3.03556835e+00,   5.26030579e+00, 
             -4.52132621e-01,   2.76942590e+00,  -2.33837546e+00,   5.11994108e+00,  -6.14495889e+00, 
              3.65234087e+00,   4.65896104e+00,   4.00402074e-02,  -3.85334654e+00,   9.67632840e+00, 
             -3.32195254e+00,   1.71453014e+00,   9.20916481e+00,   3.31036107e+00,  -4.95116427e+00, 
              1.43519884e+01,  -6.15586143e+00,   2.92156512e-01,   1.39867240e+01,   2.73342981e-01, 
             -7.15903556e+00,   1.93863657e+01,  -3.44278977e+00,  -2.29946106e+00,   1.92451907e+01, 
              2.87468135e+00,  -8.31135934e+00,   2.43955830e+01,  -6.04561138e+00,  -3.11019289e+00, 
              2.45910450e+01,   1.76207513e-01,  -1.04884008e+01,   2.93093394e+01,  -3.11907350e+00, 
             -5.52193819e+00,   2.95228594e+01,   2.97626110e+00,  -1.19263470e+01,   3.36776460e+01, 
             -5.42250145e+00,  -6.87815150e+00,   3.42198708e+01,   1.81648577e-01,  -1.38555384e+01, 
              3.90291295e+01,  -3.30472789e+00,  -9.42645886e+00,   3.86026493e+01,   3.02311445e+00, 
             -1.56216754e+01,   4.32039778e+01,  -5.80955338e+00,  -1.03672582e+01,   4.35456494e+01, 
             -2.64975171e-01,  -1.70975045e+01,   4.78923531e+01,  -3.59293078e+00,  -1.19702083e+01, 
              4.79569035e+01,   2.61272895e+00,  -1.87971328e+01,   5.29525025e+01,  -6.60146365e+00, 
             -1.42220033e+01,   5.26909760e+01,  -1.18124519e+01,   1.08904283e+01,   1.09246563e-01, 
             -1.49460825e+01,   1.61319990e+01,   6.98342351e-01,  -9.09250669e+00,   8.47987490e+00, 
              4.28791841e+00,  -1.74692665e+01,   1.30109671e+01,   5.54117318e+00,  -1.14393891e+01, 
              6.71636581e+00,   9.11462626e+00,  -1.49907723e+01,   1.12790930e+01,   1.01850903e+01, 
             -8.73626005e+00,   5.34812502e+00,   1.43373877e+01,  -1.82644910e+01,   1.02998368e+01, 
              1.43906069e+01,  -1.18292119e+01,   2.90563501e+00,   1.89912467e+01,  -1.46614821e+01, 
              8.48111875e+00,   1.91651861e+01,  -9.43916085e+00,   1.84509174e+00,   2.38464600e+01, 
             -1.73557225e+01,   6.09834837e+00,   2.35704427e+01,  -1.20290634e+01,  -1.39422502e-01, 
              2.87622081e+01,  -1.46119037e+01,   4.51091334e+00,   2.84620283e+01,  -9.42624822e+00, 
             -2.04720605e+00,   3.37280809e+01,  -1.74686446e+01,   3.32065277e+00,   3.37199675e+01, 
             -1.18337130e+01,  -3.87597452e+00,   3.85259473e+01,  -1.44333698e+01,   1.60773165e+00, 
              3.86980088e+01,  -9.33176894e+00,  -5.17577780e+00,   4.35839686e+01,  -1.77555184e+01, 
              3.85032274e-01,   4.43366201e+01,  -1.21962789e+01,  -6.67349379e+00,   4.79810766e+01, 
             -1.54784442e+01,  -2.15692896e+00,   4.88068460e+01,  -9.38005456e+00,  -8.98787481e+00, 
              5.26407816e+01,  -1.79834556e+01,  -3.44912242e+00,   5.38249423e+01,  -2.39604412e+01, 
              2.08482495e+01,   4.63474964e-01,  -2.71945883e+01,   2.60124219e+01,  -6.66956143e-03, 
             -2.06919936e+01,   1.90315628e+01,   5.80803240e+00,  -2.96349483e+01,   2.42229769e+01, 
              4.44352261e+00,  -2.37411357e+01,   1.65073681e+01,   1.05953604e+01,  -2.68395133e+01, 
              2.16495187e+01,   9.49637572e+00,  -2.06313536e+01,   1.47623592e+01,   1.48496655e+01, 
             -2.99948278e+01,   2.06965650e+01,   1.41957673e+01,  -2.35342330e+01,   1.35442542e+01, 
              1.94393498e+01,  -2.62615620e+01,   1.82943682e+01,   1.95587268e+01,  -2.04090035e+01, 
              1.11397900e+01,   2.42863231e+01,  -2.98998556e+01,   1.64390142e+01,   2.44934676e+01, 
             -2.36966324e+01,   9.74554986e+00,   2.87350809e+01,  -2.65376455e+01,   1.50276620e+01, 
              2.90217272e+01,  -2.07523855e+01,   8.59356288e+00,   3.37807891e+01,  -2.94839786e+01, 
              1.33855968e+01,   3.40775747e+01,  -2.37747562e+01,   6.02019721e+00,   3.90291847e+01, 
             -2.69636264e+01,   1.12324502e+01,   3.88070546e+01,  -2.04418317e+01,   5.22600933e+00, 
              4.33169054e+01,  -2.98451762e+01,   1.02257069e+01,   4.33917453e+01,  -2.39986462e+01, 
              3.17452588e+00,   4.87328712e+01,  -2.66470574e+01,   8.52117687e+00,   4.81187300e+01, 
             -2.12349869e+01,   1.44610499e+00,   5.38198331e+01,  -3.00351579e+01,   6.73485784e+00, 
              5.29654399e+01,   5.55599041e+00,   1.58033043e-02,  -3.91661413e-01,   2.72858992e+00, 
              5.04674956e+00,  -2.03529716e-01,   9.20232949e+00,  -1.60464140e+00,   5.40238559e+00, 
             -3.77408780e-01,   3.43731932e+00,   4.89566782e+00,   6.06092185e+00,  -4.00341815e+00, 
              9.68331682e+00,   3.10901842e+00,   1.08901797e+00,   1.02579063e+01,   9.17928480e+00, 
             -5.48953077e+00,   1.43129853e+01,  -2.05617876e-01,  -6.37251888e-02,   1.46169804e+01, 
              6.33244691e+00,  -6.96941980e+00,   1.88006257e+01,   2.64497760e+00,  -1.19307936e+00, 
              1.93000817e+01,   8.53969718e+00,  -9.36308120e+00,   2.34835229e+01,   1.12612344e-01, 
             -3.60641979e+00,   2.48836836e+01,   6.09238479e+00,  -1.02912920e+01,   2.91485785e+01, 
              2.68843384e+00,  -5.34718445e+00,   2.93265896e+01,   8.93165940e+00,  -1.17963505e+01, 
              3.41488618e+01,   4.66014890e-02,  -7.39271832e+00,   3.43841741e+01,   5.79700479e+00, 
             -1.39316773e+01,   3.88183154e+01,   3.18210721e+00,  -9.07472690e+00,   3.86542928e+01, 
              8.63604630e+00,  -1.56244317e+01,   4.38720959e+01,  -3.39868045e-01,  -1.01817470e+01, 
              4.29565187e+01,   5.71776326e+00,  -1.72688920e+01,   4.81929267e+01,   2.16942597e+00, 
             -1.20101978e+01,   4.82105602e+01,   8.44330069e+00,  -1.91025876e+01,   5.29607529e+01, 
             -7.96469709e-01,  -1.38785217e+01,   5.29050445e+01,  -5.97807959e+00,   1.03445987e+01, 
             -2.78342285e-01,  -8.49019761e+00,   1.52915253e+01,  -1.06001078e-01,  -2.55513196e+00, 
              8.29930989e+00,   4.67725222e+00,  -1.21112458e+01,   1.34506951e+01,   4.72114295e+00, 
             -5.30334296e+00,   7.34346407e+00,   9.57201520e+00,  -8.40862822e+00,   1.18500194e+01, 
              9.34629858e+00,  -3.01231623e+00,   4.85435881e+00,   1.44517647e+01,  -1.18858013e+01, 
              1.03968774e+01,   1.47724051e+01,  -5.99764137e+00,   3.14774611e+00,   1.91674343e+01, 
             -8.60307256e+00,   8.51562005e+00,   1.95539583e+01,  -2.88564270e+00,   1.63258901e+00, 
              2.43959544e+01,  -1.16836702e+01,   6.78387680e+00,   2.36345603e+01,  -5.98952126e+00, 
             -3.13057332e-02,   2.92591959e+01,  -8.97173513e+00,   4.46575794e+00,   2.90016257e+01, 
             -2.79667517e+00,  -1.57931571e+00,   3.37618634e+01,  -1.19753599e+01,   2.68365049e+00, 
              3.35897233e+01,  -6.40035167e+00,  -3.47808115e+00,   3.79557279e+01,  -8.88624758e+00, 
              1.47837461e+00,   3.86742039e+01,  -3.87986982e+00,  -4.67702126e+00,   4.27925891e+01, 
             -1.21355503e+01,  -4.38802193e-01,   4.34232978e+01,  -6.66730478e+00,  -7.17737089e+00, 
              4.79534084e+01,  -9.11781948e+00,  -1.61314304e+00,   4.82812133e+01,  -3.54039919e+00, 
             -9.13125683e+00,   5.30188940e+01,  -1.22286942e+01,  -3.67536357e+00,   5.37743962e+01, 
             -1.72429068e+01,   2.08448311e+01,   4.42944852e-01,  -2.11455703e+01,   2.59679762e+01, 
              1.80702597e-01,  -1.50864364e+01,   1.85670005e+01,   5.44641412e+00,  -2.41117610e+01, 
              2.38243181e+01,   5.26633476e+00,  -1.73296430e+01,   1.63869419e+01,   1.03013122e+01, 
             -2.04089839e+01,   2.24735413e+01,   1.04534985e+01,  -1.51092916e+01,   1.53279276e+01, 
              1.48139294e+01,  -2.34708860e+01,   2.02294006e+01,   1.43522495e+01,  -1.78778657e+01, 
              1.33667763e+01,   1.97776683e+01,  -2.02322482e+01,   1.84447729e+01,   1.98955212e+01, 
             -1.51369052e+01,   1.12794049e+01,   2.39626064e+01,  -2.37949890e+01,   1.64755896e+01, 
              2.42793209e+01,  -1.75906231e+01,   1.04543271e+01,   2.91291829e+01,  -2.14639097e+01, 
              1.48166735e+01,   2.95253400e+01,  -1.49427321e+01,   8.23474457e+00,   3.36075242e+01, 
             -2.37775979e+01,   1.33947854e+01,   3.42975542e+01,  -1.84105488e+01,   7.02703125e+00, 
              3.84423497e+01,  -2.10486230e+01,   1.24318060e+01,   3.88788360e+01,  -1.49130425e+01, 
              5.17301287e+00,   4.29083796e+01,  -2.42865973e+01,   9.90400923e+00,   4.33235270e+01, 
             -1.80925916e+01,   3.76761041e+00,   4.83325240e+01,  -2.10810819e+01,   8.40802915e+00, 
              4.91153526e+01,  -1.52356582e+01,   1.99048999e+00,   5.31638252e+01,  -2.42239235e+01, 
              6.31295497e+00,   5.35039252e+01,   1.11678593e+01,  -4.26841500e-01,   5.17581285e-01, 
              8.46098191e+00,   5.10486274e+00,  -5.84455148e-01,   1.44802226e+01,  -1.70606959e+00, 
              4.80223747e+00,   6.31378090e+00,   3.18784742e+00,   4.29964736e+00,   1.23137269e+01, 
             -3.50420585e+00,   1.01105185e+01,   8.99569099e+00,   1.55237483e+00,   9.71193360e+00, 
              1.51884020e+01,  -4.78605622e+00,   1.48006986e+01,   6.45916796e+00,  -1.65662887e-01, 
              1.50888025e+01,   1.19557949e+01,  -7.25094325e+00,   1.90825966e+01,   8.61367641e+00, 
             -2.12507179e+00,   1.97912920e+01,   1.50710440e+01,  -8.91506428e+00,   2.46015998e+01, 
              5.86856622e+00,  -3.53374824e+00,   2.41419421e+01,   1.18048010e+01,  -1.01389384e+01, 
              2.89512716e+01,   9.33970504e+00,  -5.48997822e+00,   2.83899966e+01,   1.45620786e+01, 
             -1.22430475e+01,   3.46126295e+01,   6.04399645e+00,  -7.35931853e+00,   3.42642701e+01, 
              1.14115834e+01,  -1.37802020e+01,   3.88262373e+01,   8.67620450e+00,  -9.03700285e+00, 
              3.90097132e+01,   1.48901409e+01,  -1.56137140e+01,   4.39491168e+01,   5.79986630e+00, 
             -1.04377698e+01,   4.34548936e+01,   1.16112860e+01,  -1.68874860e+01,   4.78747724e+01, 
              8.68767416e+00,  -1.20169508e+01,   4.83781073e+01,   1.43542440e+01,  -1.88497807e+01, 
              5.32648309e+01,   5.17225620e+00,  -1.35398486e+01,   5.27139500e+01,  -2.44958528e-01, 
              1.00544098e+01,  -1.57939694e-01,  -2.54832338e+00,   1.50717013e+01,  -7.52254712e-01, 
              3.05951845e+00,   8.41994458e+00,   4.75252497e+00,  -5.38870211e+00,   1.34776446e+01, 
              4.41792524e+00,   1.97085431e-01,   6.13163482e+00,   9.58948002e+00,  -2.16973523e+00, 
              1.19915858e+01,   1.00250547e+01,   3.07087361e+00,   4.89377623e+00,   1.46772457e+01, 
             -5.90425496e+00,   1.02374802e+01,   1.45149810e+01,  -1.04167560e-01,   3.59466385e+00, 
              1.97492689e+01,  -2.64818444e+00,   8.94203284e+00,   1.92515042e+01,   3.63722182e+00, 
              1.86549126e+00,   2.46655607e+01,  -6.27173155e+00,   6.16536266e+00,   2.37302631e+01, 
              3.44430886e-01,   1.56377907e-01,   2.93117950e+01,  -2.28586804e+00,   4.90400493e+00, 
              2.93325981e+01,   2.94899924e+00,  -1.11926523e+00,   3.43586315e+01,  -5.55251320e+00, 
              2.97427845e+00,   3.38789956e+01,   7.67513584e-02,  -3.84028101e+00,   3.90997982e+01, 
             -2.69940785e+00,   1.00458085e+00,   3.89501562e+01,   2.89099046e+00,  -5.79179329e+00, 
              4.34834770e+01,  -6.74759043e+00,  -2.94565452e-01,   4.34879756e+01,  -7.80363354e-01, 
             -7.15127803e+00,   4.80570152e+01,  -3.09280382e+00,  -2.24821821e+00,   4.76798289e+01, 
              2.34913436e+00,  -8.76743057e+00,   5.28852949e+01,  -6.27553422e+00,  -3.78970408e+00, 
              5.29998551e+01,  -1.17883653e+01,   2.06510618e+01,  -1.70031961e-01,  -1.53196631e+01, 
              2.59306437e+01,  -5.18951404e-02,  -9.22649332e+00,   1.86117014e+01,   4.56606764e+00, 
             -1.83332340e+01,   2.41710505e+01,   4.77631899e+00,  -1.15562948e+01,   1.65215060e+01, 
              9.79049461e+00,  -1.43857346e+01,   2.12209576e+01,   9.99227102e+00,  -9.02297709e+00, 
              1.49920689e+01,   1.46210143e+01,  -1.79325182e+01,   2.02136362e+01,   1.49098602e+01, 
             -1.12500972e+01,   1.34321497e+01,   1.94773907e+01,  -1.48970645e+01,   1.84730437e+01, 
              1.95925320e+01,  -8.74685749e+00,   1.21596064e+01,   2.46680314e+01,  -1.80306599e+01, 
              1.61843036e+01,   2.51038635e+01,  -1.16921669e+01,   9.63199890e+00,   2.90989028e+01, 
             -1.40642927e+01,   1.47102709e+01,   2.87919284e+01,  -8.49948650e+00,   7.70056993e+00, 
              3.39305036e+01,  -1.80978802e+01,   1.36763293e+01,   3.36104258e+01,  -1.16101976e+01, 
              6.30974420e+00,   3.84838310e+01,  -1.48290391e+01,   1.19138842e+01,   3.91435778e+01, 
             -9.40571757e+00,   4.13544138e+00,   4.39244783e+01,  -1.83018309e+01,   1.04380335e+01, 
              4.41025728e+01,  -1.25718245e+01,   3.33001272e+00,   4.79483426e+01,  -1.54853536e+01, 
              8.40699525e+00,   4.85289357e+01,  -8.88801073e+00,   1.57783171e+00,   5.28966799e+01, 
             -1.87314132e+01,   6.14935222e+00,   5.36387316e+01,   1.67051889e+01,   4.57489509e-01, 
             -7.90557804e-02,   1.40373375e+01,   5.34817292e+00,  -5.62351541e-01,   2.11039686e+01, 
             -1.74674067e+00,   4.52597754e+00,   1.22628335e+01,   3.44700966e+00,   4.44576432e+00, 
              1.78365000e+01,  -2.71806699e+00,   9.21508532e+00,   1.49658769e+01,   1.90302799e+00, 
              9.10586424e+00,   2.07820589e+01,  -5.93763210e+00,   1.42601081e+01,   1.20688367e+01, 
             -2.36649953e-01,   1.42219664e+01,   1.77754276e+01,  -7.10402228e+00,   1.94449620e+01, 
              1.45488810e+01,  -1.98421864e+00,   1.92609154e+01,   2.06418835e+01,  -8.94038646e+00, 
              2.41686283e+01,   1.21512164e+01,  -4.16867174e+00,   2.33944233e+01,   1.79088606e+01, 
             -1.01818955e+01,   2.93056995e+01,   1.46837176e+01,  -5.49501622e+00,   2.91553956e+01, 
              2.09585072e+01,  -1.25471918e+01,   3.41824699e+01,   1.15928642e+01,  -6.61734613e+00, 
              3.42354076e+01,   1.77266006e+01,  -1.38198477e+01,   3.88822317e+01,   1.43229355e+01, 
             -8.85991044e+00,   3.89751161e+01,   2.05354003e+01,  -1.56379230e+01,   4.39124704e+01, 
              1.13688056e+01,  -1.00097712e+01,   4.33963820e+01,   1.74932420e+01,  -1.72069159e+01, 
              4.85912367e+01,   1.41470576e+01,  -1.18119233e+01,   4.85306536e+01,   1.99391805e+01, 
             -1.88648326e+01,   5.33079110e+01,   1.05512629e+01,  -1.41374117e+01,   5.29537311e+01, 
              5.84476627e+00,   9.75286068e+00,  -1.08007533e-03,   3.19352578e+00,   1.51548496e+01, 
              2.92686247e-02,   8.93010527e+00,   8.31428144e+00,   4.62483375e+00,   3.58755044e-01, 
              1.34378083e+01,   4.48517668e+00,   5.93081631e+00,   6.66016684e+00,   9.52578492e+00, 
              2.94476992e+00,   1.11361569e+01,   9.48124881e+00,   8.99477030e+00,   4.75321952e+00, 
              1.42759801e+01,  -1.97642839e-02,   9.88262184e+00,   1.47254211e+01,   5.96463399e+00, 
              3.35405682e+00,   1.92510924e+01,   3.37745518e+00,   8.34388714e+00,   1.97321068e+01, 
              9.20348260e+00,   1.30024448e+00,   2.41649745e+01,  -3.05292955e-01,   6.58149083e+00, 
              2.42812436e+01,   6.25969362e+00,  -6.28905644e-01,   2.88758714e+01,   3.60267689e+00, 
              5.26076291e+00,   2.96643970e+01,   8.57215837e+00,  -2.01848964e+00,   3.35533837e+01, 
              1.22714028e-01,   3.43511187e+00,   3.44231497e+01,   5.48764701e+00,  -3.79674500e+00, 
              3.86063377e+01,   2.96629197e+00,   1.25610577e+00,   3.90409302e+01,   8.53312404e+00, 
             -5.38048329e+00,   4.36421130e+01,   3.88593903e-01,  -4.70567361e-01,   4.38962643e+01, 
              5.74183128e+00,  -7.09730799e+00,   4.85936889e+01,   2.81354931e+00,  -2.35313896e+00, 
              4.82397157e+01,   8.87869656e+00,  -8.91153755e+00,   5.32222290e+01,  -5.53087891e-01, 
             -3.85877237e+00,   5.28425277e+01,  -5.84271160e+00,   2.06623136e+01,   7.12584397e-02, 
             -9.07303594e+00,   2.58024420e+01,   3.22987492e-01,  -3.15935362e+00,   1.82121266e+01, 
              4.53730257e+00,  -1.24535385e+01,   2.36718753e+01,   4.59871168e+00,  -6.17532302e+00, 
              1.68899072e+01,   9.76338634e+00,  -8.82289762e+00,   2.21199689e+01,   9.68744853e+00, 
             -2.73881643e+00,   1.46916071e+01,   1.45428320e+01,  -1.16344108e+01,   2.02175873e+01, 
              1.48661687e+01,  -5.71699602e+00,   1.37908577e+01,   1.94627702e+01,  -8.48274242e+00, 
              1.87161830e+01,   1.97968336e+01,  -3.30409536e+00,   1.12992111e+01,   2.44243125e+01, 
             -1.16690785e+01,   1.70270719e+01,   2.46107509e+01,  -5.59591778e+00,   9.64170096e+00, 
              2.90589277e+01,  -8.60654857e+00,   1.51741779e+01,   2.94092120e+01,  -2.76707409e+00, 
              8.41729151e+00,   3.41429716e+01,  -1.22145539e+01,   1.33186389e+01,   3.39760927e+01, 
             -5.78739738e+00,   5.93475626e+00,   3.84525329e+01,  -9.38431514e+00,   1.16619529e+01, 
              3.82128770e+01,  -2.98384200e+00,   4.08397284e+00,   4.34973660e+01,  -1.19230797e+01, 
              1.05787256e+01,   4.34289156e+01,  -5.94593335e+00,   3.52344529e+00,   4.84491617e+01, 
             -9.23585742e+00,   9.03510063e+00,   4.79906444e+01,  -3.12929070e+00,   1.12960901e+00, 
              5.29637966e+01,  -1.17730479e+01,   6.47025785e+00,   5.22391426e+01,   2.29027671e+01, 
             -1.61149316e-01,  -5.97313351e-01,   2.05353416e+01,   5.22526902e+00,  -1.08910296e-02, 
              2.64208105e+01,  -2.78844959e+00,   5.44159244e+00,   1.76370225e+01,   3.16898312e+00, 
              4.41166837e+00,   2.37987279e+01,  -3.65293679e+00,   9.81884693e+00,   2.12642592e+01, 
              1.61835108e+00,   9.22649757e+00,   2.67953322e+01,  -5.07725447e+00,   1.44183826e+01, 
              1.76125547e+01,   3.69596646e-01,   1.42472643e+01,   2.34680736e+01,  -6.88046423e+00, 
              1.93395477e+01,   2.04755079e+01,  -2.09553182e+00,   1.92431445e+01,   2.63996276e+01, 
             -8.65676710e+00,   2.47230342e+01,   1.77961405e+01,  -3.92987140e+00,   2.45644143e+01, 
              2.33913492e+01,  -1.07840880e+01,   2.89782152e+01,   2.09990797e+01,  -5.64919732e+00, 
              2.90109015e+01,   2.72577986e+01,  -1.22203584e+01,   3.43509898e+01,   1.76793728e+01, 
             -7.24068414e+00,   3.42408692e+01,   2.38770897e+01,  -1.42220341e+01,   3.89027083e+01, 
              2.08363398e+01,  -8.45815240e+00,   3.83416200e+01,   2.62910173e+01,  -1.49490710e+01, 
              4.36750256e+01,   1.75528956e+01,  -1.00284664e+01,   4.33974033e+01,   2.29440545e+01, 
             -1.72362845e+01,   4.90139657e+01,   1.96593671e+01,  -1.23554561e+01,   4.83453188e+01, 
              2.68698489e+01,  -1.94452105e+01,   5.29095236e+01,   1.67871349e+01,  -1.35877432e+01, 
              5.29462621e+01,   1.15542941e+01,   1.01196187e+01,  -3.51148340e-01,   9.04672895e+00, 
              1.53473372e+01,   3.67289630e-01,   1.49424961e+01,   8.53589517e+00,   4.79451065e+00, 
              5.92687771e+00,   1.37169226e+01,   4.81035464e+00,   1.16090512e+01,   6.40624814e+00, 
              9.02577842e+00,   8.76772242e+00,   1.16173571e+01,   9.49945487e+00,   1.42578265e+01, 
              5.57796619e+00,   1.39899865e+01,   5.76238792e+00,   1.01656858e+01,   1.43989361e+01, 
              1.19092300e+01,   3.02193815e+00,   1.91411478e+01,   8.96048986e+00,   8.38647359e+00, 
              1.95159985e+01,   1.50821953e+01,   1.49051808e+00,   2.44188290e+01,   6.29571692e+00, 
              6.55026124e+00,   2.44037292e+01,   1.19627742e+01,  -4.30073395e-01,   2.90316858e+01, 
              9.41115435e+00,   4.71287981e+00,   2.90006925e+01,   1.47318093e+01,  -2.38951319e+00, 
              3.44729975e+01,   6.38510583e+00,   3.60720228e+00,   3.42572403e+01,   1.15778469e+01, 
             -3.97844335e+00,   3.86450977e+01,   9.59882891e+00,   1.08118288e+00,   3.91034350e+01, 
              1.42489283e+01,  -5.38458262e+00,   4.37918016e+01,   5.89573275e+00,  -2.80696614e-01, 
              4.40469215e+01,   1.17195727e+01,  -7.03042301e+00,   4.88458956e+01,   8.66914423e+00, 