<simulation>
   <total_steps>100000</total_steps>
   <step>-1</step>
   <output prefix=''>
      <properties stride='2' shape='(9)' filename='lj-nst.out'>
       [ step, time{picosecond}, conserved, temperature{kelvin}, kinetic_md, 
         potential, pressure_md{megapascal}, volume, cell_h ]
      </properties>
      <trajectory format='pdb' filename='lj-nst.pos' stride='20'>positions</trajectory>
      <checkpoint stride='2000' filename='lj-nst.restart'>1</checkpoint>
   </output>
   <prng>
      <state shape='(624)'>
       [ 3964985260, 2580065883, 368747380, 3940445703, 3884422549, 
         2713463632, 1743437202, 2383959383, 4052975668, 3775044657, 
         3434951894, 2858001566, 3804205052, 696396189, 2070406546, 
         2855504207, 836855881, 2151440496, 1839217620, 373255529, 
         2146300332, 2929289165, 1590096785, 1621512443, 2717345504, 
         4031510678, 2359204009, 1647575736, 364542379, 4272925114, 
         1363679950, 3092127262, 1183501884, 72285446, 3954825591, 
         4222910766, 4116141387, 2895778183, 2287750048, 3603404192, 
         2102112718, 594832068, 948944212, 4202606727, 3544711617, 
         741867537, 2774570655, 3186446656, 2959587130, 1133970593, 
         3454056802, 2742621303, 1459243658, 3975129461, 3580045646, 
         28261878, 2779947200, 2301147854, 2291841482, 1425162478, 
         1316618045, 3723687404, 696051378, 1841964864, 489727410, 
         2560894354, 1760041086, 4219430339, 2369907046, 2035205629, 
         1401441785, 3010432883, 2408279472, 2023121537, 1098703115, 
         2141875913, 2210387082, 4167483299, 2402233076, 1890817935, 
         1074950058, 1510180986, 4011776687, 2622050747, 220305788, 
         192412125, 2685573284, 281205977, 383876092, 1077320760, 
         3019153223, 4125690234, 1003901174, 3942657248, 2180774871, 
         1637599588, 1215861055, 3086119588, 4041783789, 2453249175, 
         1721754604, 1210797672, 28498705, 4043082414, 3860886454, 
         3650219388, 1048621520, 2785508076, 3135954242, 2864910487, 
         927425539, 1440741925, 982381308, 1964952900, 938889606, 
         3787224477, 2182214190, 3243667000, 1609584616, 1468367391, 
         111700748, 2981764438, 2797326638, 340115170, 859553481, 
         1722475822, 557541949, 419180367, 2863278258, 3769714940, 
         4195376106, 2253877768, 2739545836, 433934268, 3326064281, 
         2811486744, 277853585, 3495109969, 268934069, 3203814179, 
         1141496175, 1021284918, 211179841, 4289262042, 3561434081, 
         2046557682, 2620453079, 3473067849, 2681034097, 1393359342, 
         2601024075, 3504878953, 3798212206, 3263897299, 2080839649, 
         2224335821, 999120552, 2251766116, 3953275920, 3263109463, 
         4287892954, 3448948522, 2346987794, 1839471767, 621442019, 
         4238983232, 2036713832, 118102743, 2998976567, 1798102300, 
         372891650, 2181790164, 283143078, 2683866505, 1138007258, 
         250341395, 1032827795, 2721739124, 757540636, 3959330053, 
         2196496922, 3937070432, 411931010, 1060489476, 3538573157, 
         4038653171, 2122474747, 1789149699, 1665799397, 2175235474, 
         2032533919, 4034715547, 3344945439, 546158110, 2431659007, 
         1777316204, 312350827, 2962110050, 3153873844, 2879376170, 
         1088830609, 3673219886, 4113450859, 1610224125, 3400220396, 
         333659725, 1553419331, 3020197018, 1807426301, 4245405585, 
         1167672538, 4119637530, 397275846, 3423598956, 2730166183, 
         1441588313, 3625662748, 4085502138, 1283241266, 477466831, 
         982484380, 4250291356, 1830546829, 2487174452, 2154022408, 
         2458072576, 3926061016, 3871679548, 1277219317, 3105563247, 
         294530507, 1023259890, 714659081, 4263900836, 277923115, 
         1562931000, 2411438947, 3377226112, 1479926646, 456005615, 
         1409824888, 1880211714, 3829077162, 2902935828, 1551722542, 
         1468488911, 1812165040, 2026933743, 346322681, 2107584787, 
         1810711857, 496179716, 2665382247, 1369498249, 2459285778, 
         2301780861, 3454637179, 3640678492, 3011309894, 2108823635, 
         1138446676, 336746110, 607867062, 2095217352, 1561641087, 
         3538045591, 1312409091, 2680688722, 1377100845, 2764338343, 
         3297751206, 2152108985, 3885197406, 3061499347, 2962932408, 
         3767512155, 3600725220, 651585995, 2785774490, 2063272586, 
         2970422723, 349165795, 340846062, 4121534048, 655371399, 
         1603178089, 2513767446, 830585954, 1804411369, 1905676487, 
         1576348010, 1807729246, 3202076640, 1938544279, 3277332970, 
         2768450934, 2288096424, 860045996, 448292053, 2843480278, 
         1838901020, 1438700741, 3399279116, 2784567369, 646108220, 
         1075452403, 2186477391, 1470117783, 2829577799, 1510172128, 
         3165758494, 3887766352, 1278737254, 308734456, 2190025887, 
         2698988498, 889729615, 2435907395, 4223028301, 3684014026, 
         1501998873, 4266832680, 2782452467, 58718365, 620211273, 
         3497699152, 3067056690, 91832538, 1068582900, 760632285, 
         2524526006, 3329554247, 2969693064, 1917966933, 839805037, 
         3730922569, 3452576014, 3359802155, 2965134796, 1226475534, 
         3898383765, 3739558739, 1054829087, 836529864, 567076076, 
         3778616753, 2867053361, 1809073285, 1954440865, 1977314917, 
         2228865989, 689552571, 1947630189, 4032512062, 3955339117, 
         1557112059, 784292857, 1666951202, 2854513813, 3252270762, 
         427271078, 658396397, 1317565750, 287476723, 3838904875, 
         1636132695, 422249122, 157097371, 3528322878, 2687487986, 
         264233460, 1693382555, 2843352094, 1580681368, 3307844295, 
         1344718726, 3548051409, 1856926833, 3089194719, 2979412040, 
         2258180390, 4286346557, 4113359265, 2657391448, 3800600809, 
         291826881, 1613606632, 769855763, 1693669084, 4112455849, 
         1673705086, 2918514999, 53260230, 991154158, 491657998, 
         1314276364, 433960683, 1473687054, 2596602020, 3413066135, 
         2747996179, 2573998410, 1409299297, 3885895157, 1273289880, 
         2133364594, 123977637, 362902402, 2777950820, 2249747581, 
         1495054067, 48497134, 1988621853, 3109119417, 4004502186, 
         1657334772, 1753257812, 2191076934, 1845005584, 3731894199, 
         1179622297, 2523294077, 1726292213, 1119729683, 979741137, 
         4281659999, 1186753998, 2783939792, 2599682586, 1745025939, 
         1373854751, 1846932669, 3295373615, 1721486978, 1740942435, 
         2056225466, 192056166, 707155901, 351724063, 3877906073, 
         3056196651, 896828250, 2634971022, 1233851527, 878112473, 
         4134697632, 706222907, 2949183684, 1415581527, 2522604579, 
         2479242925, 593802228, 1873281437, 3550025497, 2527663352, 
         904287076, 983161679, 2736198132, 1263184985, 3766634810, 
         4233193611, 1123902943, 2785968641, 2952829301, 2221124150, 
         1631336668, 2243026634, 2141073251, 1060650509, 4224721681, 
         883647792, 4194655106, 2957630247, 2567782782, 1783500930, 
         3678093097, 1376820599, 1325281211, 3766402189, 1718740879, 
         574067131, 3031465595, 3564948091, 2707752183, 2402862113, 
         2949538427, 94310174, 3534486125, 2488840300, 191770439, 
         1455228047, 3842307786, 1980677602, 1619074153, 1592956439, 
         2911138392, 2549828394, 3904757821, 4033536731, 1676462773, 
         659235226, 3021570054, 1123323651, 801317383, 874756159, 
         1155625610, 2340413497, 3082682265, 4068183557, 797858746, 
         647709081, 2285072372, 1750576789, 4276783002, 3023787363, 
         1967616913, 1229713908, 3628357176, 2913325079, 3734076538, 
         1611295421, 2842035904, 2082445293, 4150635621, 3554891694, 
         542547327, 4237351873, 416668786, 3127271263, 2457025046, 
         1333759485, 2882313496, 2158799559, 4124724972, 3458490652, 
         2243817757, 1745956629, 856181260, 853086158, 3137167457, 
         3826672968, 2530742075, 81367110, 2979712647, 3079518679, 
         499134712, 2678876398, 2138845172, 1734219293, 4130133757, 
         697789567, 3610937229, 1414551611, 254216270, 2465581032, 
         1031362635, 3423818713, 4199694294, 3523790354, 72361634, 
         4112561628, 1635172880, 226406491, 3116449168, 2273290463, 
         4114801023, 3103126512, 3219674850, 986241892, 351959483, 
         3830718513, 2962419253, 3874121486, 852790365, 406635761, 
         582771617, 3407271202, 17600690, 2552981543, 999886812, 
         2431113963, 3543492257, 768951439, 474228565, 1662518861, 
         731712078, 1283001290, 2044172118, 428239384, 2338697000, 
         3469135820, 995968006, 818969862, 913203377, 3733905917, 
         3987762678, 1697541142, 436832856, 1333290670, 3704039808, 
         1212701770, 3647517780, 4027894837, 125406555, 1686422261, 
         3425621576, 1859812192, 3638390890, 2855238480, 841328342, 
         4073599812, 2494039751, 3512144929, 3122444559, 4020814357, 
         1017999494, 1156428888, 2569772570, 3838894946, 1355348292, 
         400693705, 1777484797, 3129332505, 804772157 ]
      </state>
      <seed>3348</seed>
      <set_pos>420</set_pos>
   </prng>
   <ffsocket mode='unix' name='lj'>
      <address>lj_nst</address>
   </ffsocket>
   <system>
      <beads natoms='864' nbeads='1'>
         <q shape='(1, 2592)'>
          [   0.00000000e+00,   0.00000000e+00,   0.00000000e+00,   4.36500000e+00,   4.36500000e+00, 
              0.00000000e+00,   4.28900000e+00,   5.25130000e+01,   4.25300000e+00,   0.00000000e+00, 
              4.36500000e+00,   4.36500000e+00,  -7.60000000e-02,   5.25130000e+01,   8.61900000e+00, 
              4.28900000e+00,   5.68780000e+01,   8.61900000e+00,   4.28900000e+00,   5.25130000e+01, 
              1.29840000e+01,  -7.60000000e-02,   5.68780000e+01,   1.29840000e+01,  -7.60000000e-02, 
              5.25130000e+01,   1.73490000e+01,   4.28900000e+00,   5.68780000e+01,   1.73490000e+01, 
              4.28900000e+00,   5.25130000e+01,   2.17140000e+01,  -7.60000000e-02,   5.68780000e+01, 
              2.17140000e+01,  -7.60000000e-02,   5.25130000e+01,   2.60800000e+01,   4.28900000e+00, 
              5.68780000e+01,   2.60800000e+01,   4.28900000e+00,   5.25130000e+01,   3.04450000e+01, 
             -7.60000000e-02,   5.68780000e+01,   3.04450000e+01,  -7.60000000e-02,   5.25130000e+01, 
              3.48100000e+01,   4.28900000e+00,   5.68780000e+01,   3.48100000e+01,   4.28900000e+00, 
              5.25130000e+01,   3.91750000e+01,  -7.60000000e-02,   5.68780000e+01,   3.91750000e+01, 
             -7.60000000e-02,   5.25130000e+01,   4.35410000e+01,   4.28900000e+00,   5.68780000e+01, 
              4.35410000e+01,   4.28900000e+00,   5.25130000e+01,   4.79060000e+01,  -7.60000000e-02, 
              5.68780000e+01,   4.79060000e+01,   0.00000000e+00,   8.73100000e+00,   0.00000000e+00, 
              4.36500000e+00,   1.30960000e+01,   0.00000000e+00,   4.36500000e+00,   8.73100000e+00, 
              4.36500000e+00,   0.00000000e+00,   1.30960000e+01,   4.36500000e+00,   0.00000000e+00, 
              8.73100000e+00,   8.73100000e+00,   4.36500000e+00,   1.30960000e+01,   8.73100000e+00, 
              4.28900000e+00,   6.12440000e+01,   1.29840000e+01,   0.00000000e+00,   1.30960000e+01, 
              1.30960000e+01,  -7.60000000e-02,   6.12440000e+01,   1.73490000e+01,   4.28900000e+00, 
              6.56090000e+01,   1.73490000e+01,   4.28900000e+00,   6.12440000e+01,   2.17140000e+01, 
             -7.60000000e-02,   6.56090000e+01,   2.17140000e+01,  -7.60000000e-02,   6.12440000e+01, 
              2.60800000e+01,   4.28900000e+00,   6.56090000e+01,   2.60800000e+01,   4.28900000e+00, 
              6.12440000e+01,   3.04450000e+01,  -7.60000000e-02,   6.56090000e+01,   3.04450000e+01, 
             -7.60000000e-02,   6.12440000e+01,   3.48100000e+01,   4.28900000e+00,   6.56090000e+01, 
              3.48100000e+01,   4.28900000e+00,   6.12440000e+01,   3.91750000e+01,  -7.60000000e-02, 
              6.56090000e+01,   3.91750000e+01,  -7.60000000e-02,   6.12440000e+01,   4.35410000e+01, 
              4.28900000e+00,   6.56090000e+01,   4.35410000e+01,   4.28900000e+00,   6.12440000e+01, 
              4.79060000e+01,  -7.60000000e-02,   6.56090000e+01,   4.79060000e+01,   0.00000000e+00, 
              1.74610000e+01,   0.00000000e+00,   4.36500000e+00,   2.18260000e+01,   0.00000000e+00, 
              4.36500000e+00,   1.74610000e+01,   4.36500000e+00,   0.00000000e+00,   2.18260000e+01, 
              4.36500000e+00,   0.00000000e+00,   1.74610000e+01,   8.73100000e+00,   4.36500000e+00, 
              2.18260000e+01,   8.73100000e+00,   4.36500000e+00,   1.74610000e+01,   1.30960000e+01, 
              0.00000000e+00,   2.18260000e+01,   1.30960000e+01,   0.00000000e+00,   1.74610000e+01, 
              1.74610000e+01,   4.36500000e+00,   2.18260000e+01,   1.74610000e+01,   4.28900000e+00, 
              6.99740000e+01,   2.17140000e+01,   0.00000000e+00,   2.18260000e+01,   2.18260000e+01, 
             -7.60000000e-02,   6.99740000e+01,   2.60800000e+01,   4.28900000e+00,   7.43390000e+01, 
              2.60800000e+01,   4.28900000e+00,   6.99740000e+01,   3.04450000e+01,  -7.60000000e-02, 
              7.43390000e+01,   3.04450000e+01,  -7.60000000e-02,   6.99740000e+01,   3.48100000e+01, 
              4.28900000e+00,   7.43390000e+01,   3.48100000e+01,   4.28900000e+00,   6.99740000e+01, 
              3.91750000e+01,  -7.60000000e-02,   7.43390000e+01,   3.91750000e+01,  -7.60000000e-02, 
              6.99740000e+01,   4.35410000e+01,   4.28900000e+00,   7.43390000e+01,   4.35410000e+01, 
              4.28900000e+00,   6.99740000e+01,   4.79060000e+01,  -7.60000000e-02,   7.43390000e+01, 
              4.79060000e+01,   0.00000000e+00,   2.61920000e+01,   0.00000000e+00,   4.36500000e+00, 
              3.05570000e+01,   0.00000000e+00,   4.36500000e+00,   2.61920000e+01,   4.36500000e+00, 
              0.00000000e+00,   3.05570000e+01,   4.36500000e+00,   0.00000000e+00,   2.61920000e+01, 
              8.73100000e+00,   4.36500000e+00,   3.05570000e+01,   8.73100000e+00,   4.36500000e+00, 
              2.61920000e+01,   1.30960000e+01,   0.00000000e+00,   3.05570000e+01,   1.30960000e+01, 
              0.00000000e+00,   2.61920000e+01,   1.74610000e+01,   4.36500000e+00,   3.05570000e+01, 
              1.74610000e+01,   4.36500000e+00,   2.61920000e+01,   2.18260000e+01,   0.00000000e+00, 
              3.05570000e+01,   2.18260000e+01,   0.00000000e+00,   2.61920000e+01,   2.61920000e+01, 
              4.36500000e+00,   3.05570000e+01,   2.61920000e+01,   4.28900000e+00,   7.87050000e+01, 
              3.04450000e+01,   0.00000000e+00,   3.05570000e+01,   3.05570000e+01,  -7.60000000e-02, 
              7.87050000e+01,   3.48100000e+01,   4.28900000e+00,   8.30700000e+01,   3.48100000e+01, 
              4.28900000e+00,   7.87050000e+01,   3.91750000e+01,  -7.60000000e-02,   8.30700000e+01, 
              3.91750000e+01,  -7.60000000e-02,   7.87050000e+01,   4.35410000e+01,   4.28900000e+00, 
              8.30700000e+01,   4.35410000e+01,   4.28900000e+00,   7.87050000e+01,   4.79060000e+01, 
             -7.60000000e-02,   8.30700000e+01,   4.79060000e+01,   0.00000000e+00,   3.49220000e+01, 
              0.00000000e+00,   4.36500000e+00,   3.92870000e+01,   0.00000000e+00,   4.36500000e+00, 
              3.49220000e+01,   4.36500000e+00,   0.00000000e+00,   3.92870000e+01,   4.36500000e+00, 
              0.00000000e+00,   3.49220000e+01,   8.73100000e+00,   4.36500000e+00,   3.92870000e+01, 
              8.73100000e+00,   4.36500000e+00,   3.49220000e+01,   1.30960000e+01,   0.00000000e+00, 
              3.92870000e+01,   1.30960000e+01,   0.00000000e+00,   3.49220000e+01,   1.74610000e+01, 
              4.36500000e+00,   3.92870000e+01,   1.74610000e+01,   4.36500000e+00,   3.49220000e+01, 
              2.18260000e+01,   0.00000000e+00,   3.92870000e+01,   2.18260000e+01,   0.00000000e+00, 
              3.49220000e+01,   2.61920000e+01,   4.36500000e+00,   3.92870000e+01,   2.61920000e+01, 
              4.36500000e+00,   3.49220000e+01,   3.05570000e+01,   0.00000000e+00,   3.92870000e+01, 
              3.05570000e+01,   0.00000000e+00,   3.49220000e+01,   3.49220000e+01,   4.36500000e+00, 
              3.92870000e+01,   3.49220000e+01,   4.28900000e+00,   8.74350000e+01,   3.91750000e+01, 
              0.00000000e+00,   3.92870000e+01,   3.92870000e+01,  -7.60000000e-02,   8.74350000e+01, 
              4.35410000e+01,   4.28900000e+00,   9.18000000e+01,   4.35410000e+01,   4.28900000e+00, 
              8.74350000e+01,   4.79060000e+01,  -7.60000000e-02,   9.18000000e+01,   4.79060000e+01, 
              0.00000000e+00,   4.36530000e+01,   0.00000000e+00,   4.36500000e+00,   4.80180000e+01, 
              0.00000000e+00,   4.36500000e+00,   4.36530000e+01,   4.36500000e+00,   0.00000000e+00, 
              4.80180000e+01,   4.36500000e+00,   0.00000000e+00,   4.36530000e+01,   8.73100000e+00, 
              4.36500000e+00,   4.80180000e+01,   8.73100000e+00,   4.36500000e+00,   4.36530000e+01, 
              1.30960000e+01,   0.00000000e+00,   4.80180000e+01,   1.30960000e+01,   0.00000000e+00, 
              4.36530000e+01,   1.74610000e+01,   4.36500000e+00,   4.80180000e+01,   1.74610000e+01, 
              4.36500000e+00,   4.36530000e+01,   2.18260000e+01,   0.00000000e+00,   4.80180000e+01, 
              2.18260000e+01,   0.00000000e+00,   4.36530000e+01,   2.61920000e+01,   4.36500000e+00, 
              4.80180000e+01,   2.61920000e+01,   4.36500000e+00,   4.36530000e+01,   3.05570000e+01, 
              0.00000000e+00,   4.80180000e+01,   3.05570000e+01,   0.00000000e+00,   4.36530000e+01, 
              3.49220000e+01,   4.36500000e+00,   4.80180000e+01,   3.49220000e+01,   4.36500000e+00, 
              4.36530000e+01,   3.92870000e+01,   0.00000000e+00,   4.80180000e+01,   3.92870000e+01, 
              0.00000000e+00,   4.36530000e+01,   4.36530000e+01,   4.36500000e+00,   4.80180000e+01, 
              4.36530000e+01,   4.28900000e+00,   9.61660000e+01,   4.79060000e+01,   0.00000000e+00, 
              4.80180000e+01,   4.80180000e+01,   8.73100000e+00,   0.00000000e+00,   0.00000000e+00, 
              1.30960000e+01,   4.36500000e+00,   0.00000000e+00,   1.30200000e+01,   5.25130000e+01, 
              4.25300000e+00,   8.73100000e+00,   4.36500000e+00,   4.36500000e+00,   8.65500000e+00, 
              5.25130000e+01,   8.61900000e+00,   1.30200000e+01,   5.68780000e+01,   8.61900000e+00, 
              1.30200000e+01,   5.25130000e+01,   1.29840000e+01,   8.65500000e+00,   5.68780000e+01, 
              1.29840000e+01,   8.65500000e+00,   5.25130000e+01,   1.73490000e+01,   1.30200000e+01, 
              5.68780000e+01,   1.73490000e+01,   1.30200000e+01,   5.25130000e+01,   2.17140000e+01, 
              8.65500000e+00,   5.68780000e+01,   2.17140000e+01,   8.65500000e+00,   5.25130000e+01, 
              2.60800000e+01,   1.30200000e+01,   5.68780000e+01,   2.60800000e+01,   1.30200000e+01, 
              5.25130000e+01,   3.04450000e+01,   8.65500000e+00,   5.68780000e+01,   3.04450000e+01, 
              8.65500000e+00,   5.25130000e+01,   3.48100000e+01,   1.30200000e+01,   5.68780000e+01, 
              3.48100000e+01,   1.30200000e+01,   5.25130000e+01,   3.91750000e+01,   8.65500000e+00, 
              5.68780000e+01,   3.91750000e+01,   8.65500000e+00,   5.25130000e+01,   4.35410000e+01, 
              1.30200000e+01,   5.68780000e+01,   4.35410000e+01,   1.30200000e+01,   5.25130000e+01, 
              4.79060000e+01,   8.65500000e+00,   5.68780000e+01,   4.79060000e+01,   8.73100000e+00, 
              8.73100000e+00,   0.00000000e+00,   1.30960000e+01,   1.30960000e+01,   0.00000000e+00, 
              1.30960000e+01,   8.73100000e+00,   4.36500000e+00,   8.73100000e+00,   1.30960000e+01, 
              4.36500000e+00,   8.73100000e+00,   8.73100000e+00,   8.73100000e+00,   1.30960000e+01, 
              1.30960000e+01,   8.73100000e+00,   1.30200000e+01,   6.12440000e+01,   1.29840000e+01, 
              8.73100000e+00,   1.30960000e+01,   1.30960000e+01,   8.65500000e+00,   6.12440000e+01, 
              1.73490000e+01,   1.30200000e+01,   6.56090000e+01,   1.73490000e+01,   1.30200000e+01, 
              6.12440000e+01,   2.17140000e+01,   8.65500000e+00,   6.56090000e+01,   2.17140000e+01, 
              8.65500000e+00,   6.12440000e+01,   2.60800000e+01,   1.30200000e+01,   6.56090000e+01, 
              2.60800000e+01,   1.30200000e+01,   6.12440000e+01,   3.04450000e+01,   8.65500000e+00, 
              6.56090000e+01,   3.04450000e+01,   8.65500000e+00,   6.12440000e+01,   3.48100000e+01, 
              1.30200000e+01,   6.56090000e+01,   3.48100000e+01,   1.30200000e+01,   6.12440000e+01, 
              3.91750000e+01,   8.65500000e+00,   6.56090000e+01,   3.91750000e+01,   8.65500000e+00, 
              6.12440000e+01,   4.35410000e+01,   1.30200000e+01,   6.56090000e+01,   4.35410000e+01, 
              1.30200000e+01,   6.12440000e+01,   4.79060000e+01,   8.65500000e+00,   6.56090000e+01, 
              4.79060000e+01,   8.73100000e+00,   1.74610000e+01,   0.00000000e+00,   1.30960000e+01, 
              2.18260000e+01,   0.00000000e+00,   1.30960000e+01,   1.74610000e+01,   4.36500000e+00, 
              8.73100000e+00,   2.18260000e+01,   4.36500000e+00,   8.73100000e+00,   1.74610000e+01, 
              8.73100000e+00,   1.30960000e+01,   2.18260000e+01,   8.73100000e+00,   1.30960000e+01, 
              1.74610000e+01,   1.30960000e+01,   8.73100000e+00,   2.18260000e+01,   1.30960000e+01, 
              8.73100000e+00,   1.74610000e+01,   1.74610000e+01,   1.30960000e+01,   2.18260000e+01, 
              1.74610000e+01,   1.30200000e+01,   6.99740000e+01,   2.17140000e+01,   8.73100000e+00, 
              2.18260000e+01,   2.18260000e+01,   8.65500000e+00,   6.99740000e+01,   2.60800000e+01, 
              1.30200000e+01,   7.43390000e+01,   2.60800000e+01,   1.30200000e+01,   6.99740000e+01, 
              3.04450000e+01,   8.65500000e+00,   7.43390000e+01,   3.04450000e+01,   8.65500000e+00, 
              6.99740000e+01,   3.48100000e+01,   1.30200000e+01,   7.43390000e+01,   3.48100000e+01, 
              1.30200000e+01,   6.99740000e+01,   3.91750000e+01,   8.65500000e+00,   7.43390000e+01, 
              3.91750000e+01,   8.65500000e+00,   6.99740000e+01,   4.35410000e+01,   1.30200000e+01, 
              7.43390000e+01,   4.35410000e+01,   1.30200000e+01,   6.99740000e+01,   4.79060000e+01, 
              8.65500000e+00,   7.43390000e+01,   4.79060000e+01,   8.73100000e+00,   2.61920000e+01, 
              0.00000000e+00,   1.30960000e+01,   3.05570000e+01,   0.00000000e+00,   1.30960000e+01, 
              2.61920000e+01,   4.36500000e+00,   8.73100000e+00,   3.05570000e+01,   4.36500000e+00, 
              8.73100000e+00,   2.61920000e+01,   8.73100000e+00,   1.30960000e+01,   3.05570000e+01, 
              8.73100000e+00,   1.30960000e+01,   2.61920000e+01,   1.30960000e+01,   8.73100000e+00, 
              3.05570000e+01,   1.30960000e+01,   8.73100000e+00,   2.61920000e+01,   1.74610000e+01, 
              1.30960000e+01,   3.05570000e+01,   1.74610000e+01,   1.30960000e+01,   2.61920000e+01, 
              2.18260000e+01,   8.73100000e+00,   3.05570000e+01,   2.18260000e+01,   8.73100000e+00, 
              2.61920000e+01,   2.61920000e+01,   1.30960000e+01,   3.05570000e+01,   2.61920000e+01, 
              1.30200000e+01,   7.87050000e+01,   3.04450000e+01,   8.73100000e+00,   3.05570000e+01, 
              3.05570000e+01,   8.65500000e+00,   7.87050000e+01,   3.48100000e+01,   1.30200000e+01, 
              8.30700000e+01,   3.48100000e+01,   1.30200000e+01,   7.87050000e+01,   3.91750000e+01, 
              8.65500000e+00,   8.30700000e+01,   3.91750000e+01,   8.65500000e+00,   7.87050000e+01, 
              4.35410000e+01,   1.30200000e+01,   8.30700000e+01,   4.35410000e+01,   1.30200000e+01, 
              7.87050000e+01,   4.79060000e+01,   8.65500000e+00,   8.30700000e+01,   4.79060000e+01, 
              8.73100000e+00,   3.49220000e+01,   0.00000000e+00,   1.30960000e+01,   3.92870000e+01, 
              0.00000000e+00,   1.30960000e+01,   3.49220000e+01,   4.36500000e+00,   8.73100000e+00, 
              3.92870000e+01,   4.36500000e+00,   8.73100000e+00,   3.49220000e+01,   8.73100000e+00, 
              1.30960000e+01,   3.92870000e+01,   8.73100000e+00,   1.30960000e+01,   3.49220000e+01, 
              1.30960000e+01,   8.73100000e+00,   3.92870000e+01,   1.30960000e+01,   8.73100000e+00, 
              3.49220000e+01,   1.74610000e+01,   1.30960000e+01,   3.92870000e+01,   1.74610000e+01, 
              1.30960000e+01,   3.49220000e+01,   2.18260000e+01,   8.73100000e+00,   3.92870000e+01, 
              2.18260000e+01,   8.73100000e+00,   3.49220000e+01,   2.61920000e+01,   1.30960000e+01, 
              3.92870000e+01,   2.61920000e+01,   1.30960000e+01,   3.49220000e+01,   3.05570000e+01, 
              8.73100000e+00,   3.92870000e+01,   3.05570000e+01,   8.73100000e+00,   3.49220000e+01, 
              3.49220000e+01,   1.30960000e+01,   3.92870000e+01,   3.49220000e+01,   1.30200000e+01, 
              8.74350000e+01,   3.91750000e+01,   8.73100000e+00,   3.92870000e+01,   3.92870000e+01, 
              8.65500000e+00,   8.74350000e+01,   4.35410000e+01,   1.30200000e+01,   9.18000000e+01, 
              4.35410000e+01,   1.30200000e+01,   8.74350000e+01,   4.79060000e+01,   8.65500000e+00, 
              9.18000000e+01,   4.79060000e+01,   8.73100000e+00,   4.36530000e+01,   0.00000000e+00, 
              1.30960000e+01,   4.80180000e+01,   0.00000000e+00,   1.30960000e+01,   4.36530000e+01, 
              4.36500000e+00,   8.73100000e+00,   4.80180000e+01,   4.36500000e+00,   8.73100000e+00, 
              4.36530000e+01,   8.73100000e+00,   1.30960000e+01,   4.80180000e+01,   8.73100000e+00, 
              1.30960000e+01,   4.36530000e+01,   1.30960000e+01,   8.73100000e+00,   4.80180000e+01, 
              1.30960000e+01,   8.73100000e+00,   4.36530000e+01,   1.74610000e+01,   1.30960000e+01, 
              4.80180000e+01,   1.74610000e+01,   1.30960000e+01,   4.36530000e+01,   2.18260000e+01, 
              8.73100000e+00,   4.80180000e+01,   2.18260000e+01,   8.73100000e+00,   4.36530000e+01, 
              2.61920000e+01,   1.30960000e+01,   4.80180000e+01,   2.61920000e+01,   1.30960000e+01, 
              4.36530000e+01,   3.05570000e+01,   8.73100000e+00,   4.80180000e+01,   3.05570000e+01, 
              8.73100000e+00,   4.36530000e+01,   3.49220000e+01,   1.30960000e+01,   4.80180000e+01, 
              3.49220000e+01,   1.30960000e+01,   4.36530000e+01,   3.92870000e+01,   8.73100000e+00, 
              4.80180000e+01,   3.92870000e+01,   8.73100000e+00,   4.36530000e+01,   4.36530000e+01, 
              1.30960000e+01,   4.80180000e+01,   4.36530000e+01,   1.30200000e+01,   9.61660000e+01, 
              4.79060000e+01,   8.73100000e+00,   4.80180000e+01,   4.80180000e+01,   1.74610000e+01, 
              0.00000000e+00,   0.00000000e+00,   2.18260000e+01,   4.36500000e+00,   0.00000000e+00, 
              2.17500000e+01,   5.25130000e+01,   4.25300000e+00,   1.74610000e+01,   4.36500000e+00, 
              4.36500000e+00,   1.73850000e+01,   5.25130000e+01,   8.61900000e+00,   2.17500000e+01, 
              5.68780000e+01,   8.61900000e+00,   2.17500000e+01,   5.25130000e+01,   1.29840000e+01, 
              1.73850000e+01,   5.68780000e+01,   1.29840000e+01,   1.73850000e+01,   5.25130000e+01, 
              1.73490000e+01,   2.17500000e+01,   5.68780000e+01,   1.73490000e+01,   2.17500000e+01, 
              5.25130000e+01,   2.17140000e+01,   1.73850000e+01,   5.68780000e+01,   2.17140000e+01, 
              1.73850000e+01,   5.25130000e+01,   2.60800000e+01,   2.17500000e+01,   5.68780000e+01, 
              2.60800000e+01,   2.17500000e+01,   5.25130000e+01,   3.04450000e+01,   1.73850000e+01, 
              5.68780000e+01,   3.04450000e+01,   1.73850000e+01,   5.25130000e+01,   3.48100000e+01, 
              2.17500000e+01,   5.68780000e+01,   3.48100000e+01,   2.17500000e+01,   5.25130000e+01, 
              3.91750000e+01,   1.73850000e+01,   5.68780000e+01,   3.91750000e+01,   1.73850000e+01, 
              5.25130000e+01,   4.35410000e+01,   2.17500000e+01,   5.68780000e+01,   4.35410000e+01, 
              2.17500000e+01,   5.25130000e+01,   4.79060000e+01,   1.73850000e+01,   5.68780000e+01, 
              4.79060000e+01,   1.74610000e+01,   8.73100000e+00,   0.00000000e+00,   2.18260000e+01, 
              1.30960000e+01,   0.00000000e+00,   2.18260000e+01,   8.73100000e+00,   4.36500000e+00, 
              1.74610000e+01,   1.30960000e+01,   4.36500000e+00,   1.74610000e+01,   8.73100000e+00, 
              8.73100000e+00,   2.18260000e+01,   1.30960000e+01,   8.73100000e+00,   2.17500000e+01, 
              6.12440000e+01,   1.29840000e+01,   1.74610000e+01,   1.30960000e+01,   1.30960000e+01, 
              1.73850000e+01,   6.12440000e+01,   1.73490000e+01,   2.17500000e+01,   6.56090000e+01, 
              1.73490000e+01,   2.17500000e+01,   6.12440000e+01,   2.17140000e+01,   1.73850000e+01, 
              6.56090000e+01,   2.17140000e+01,   1.73850000e+01,   6.12440000e+01,   2.60800000e+01, 
              2.17500000e+01,   6.56090000e+01,   2.60800000e+01,   2.17500000e+01,   6.12440000e+01, 
              3.04450000e+01,   1.73850000e+01,   6.56090000e+01,   3.04450000e+01,   1.73850000e+01, 
              6.12440000e+01,   3.48100000e+01,   2.17500000e+01,   6.56090000e+01,   3.48100000e+01, 
              2.17500000e+01,   6.12440000e+01,   3.91750000e+01,   1.73850000e+01,   6.56090000e+01, 
              3.91750000e+01,   1.73850000e+01,   6.12440000e+01,   4.35410000e+01,   2.17500000e+01, 