LAMMPS data file from restart file: timestep = 12100000, procs = 8

5 atoms

2 atom types

-50 50 xlo xhi
-50 50 ylo yhi
-50 50 zlo zhi

Masses

1 12.01
2 1.008

Atoms

1         1                  0.00000000    0.00000000    0.00000000
2         2                  1.01578458    0.00000000    0.00000000
3         2                 -0.33859486    0.95769088    0.00000000
4         2                 -0.33859486   -0.47884544    0.82938463
5         2                 -0.33859486   -0.47884544   -0.82938463
