Created by charmm2lammps v1.8.1 on Fri Jan  9 15:19:29 CET 2015

         160  atoms
         160  bonds
         248  angles
         448  dihedrals
          64  impropers

           9  atom types
          10  bond types
          13  angle types
          24  dihedral types
           6  improper types

     -5.7973391 5.7973391 xlo xhi
     -3.6603743 3.6603743 ylo yhi
     -8.6157818 8.6157818 zlo zhi

Masses

       1     12.011  # CB
       2    15.9994  # OR
       3    14.0067  # NC=O
       4     12.011  # C=O
       5     12.011  # CR
       6    15.9994  # O=C
       7    1.00794  # HCMM
       8    1.00794  # HOCC
       9    1.00794  # HNCO

Pair Coeffs

       1       0.07   3.550053       0.07   3.550053  # CB
       2     0.1521   3.153781     0.1521   3.153781  # OR
       3        0.2   3.296325        0.2   3.296325  # NC=O
       4       0.11   3.563595       0.11   3.563595  # C=O
       5      0.055   3.875409       0.01   3.385415  # CR
       6       0.12   3.029056       0.12   2.494516  # O=C
       7      0.022   2.351973      0.022   2.351973  # HCMM
       8      0.046  0.4000135      0.046  0.4000135  # HOCC
       9      0.046  0.4000135      0.046  0.4000135  # HNCO

Atoms

       1       1     5     0.061       -1.005   1.992  17.813  # CR
       2       1     7         0       -0.653   2.396  18.766  # HCMM
       3       1     7         0       -1.820   2.614  17.433  # HCMM
       4       1     7         0       -1.405   0.985  17.995  # HCMM
       5       1     4     0.569        0.148   1.900  16.847  # C=O
       6       1     6     -0.57        1.313   1.604  17.212  # O=C
       7       1     3    -0.547       -0.175   2.143  15.556  # NC=O
       8       1     9      0.37       -1.176   2.283  15.367  # HNCO
       9       1     1     0.117        0.646   2.130  14.405  # CB
      10       1     1     -0.15        0.107   2.698  13.242  # CB
      11       1     7      0.15       -0.869   3.179  13.276  # HCMM
      12       1     1     -0.15        0.805   2.658  12.043  # CB
      13       1     7      0.15        0.385   3.123  11.156  # HCMM
      14       1     1     -0.15        1.923   1.553  14.349  # CB
      15       1     7      0.15        2.359   1.119  15.242  # HCMM
      16       1     1     -0.15        2.619   1.508  13.143  # CB
      17       1     7      0.15        3.596   1.032  13.099  # HCMM
      18       1     1    0.0825        2.059   2.038  11.975  # CB
      19       1     2   -0.5325        2.750   1.947  10.799  # OR
      20       1     8      0.45        2.124   2.059  10.014  # HOCC
      21       2     5     0.061       -1.005   1.667   9.200  # CR
      22       2     7         0       -0.653   1.263  10.154  # HCMM
      23       2     7         0       -1.405   2.674   9.382  # HCMM
      24       2     7         0       -1.820   1.045   8.820  # HCMM
      25       2     4     0.569        0.148   1.759   8.234  # C=O
      26       2     6     -0.57        1.313   2.055   8.599  # O=C
      27       2     3    -0.547       -0.175   1.516   6.943  # NC=O
      28       2     9      0.37       -1.176   1.376   6.754  # HNCO
      29       2     1     0.117        0.646   1.529   5.792  # CB
      30       2     1     -0.15        0.107   0.962   4.629  # CB
      31       2     7      0.15       -0.869   0.480   4.663  # HCMM
      32       2     1     -0.15        0.805   1.002   3.430  # CB
      33       2     7      0.15        0.385   0.536   2.543  # HCMM
      34       2     1     -0.15        1.923   2.106   5.736  # CB
      35       2     7      0.15        2.359   2.540   6.629  # HCMM
      36       2     1     -0.15        2.619   2.151   4.530  # CB
      37       2     7      0.15        3.596   2.627   4.486  # HCMM
      38       2     1    0.0825        2.059   1.621   3.362  # CB
      39       2     2   -0.5325        2.750   1.713   2.186  # OR
      40       2     8      0.45        2.124   1.601   1.401  # HOCC
      41       3     5     0.061        6.800   5.651  17.813  # CR
      42       3     7         0        6.448   6.055  18.766  # HCMM
      43       3     7         0        7.200   4.644  17.995  # HCMM
      44       3     7         0        7.615   6.273  17.433  # HCMM
      45       3     4     0.569        5.647   5.559  16.847  # C=O
      46       3     6     -0.57        4.482   5.263  17.212  # O=C
      47       3     3    -0.547        5.970   5.802  15.556  # NC=O
      48       3     9      0.37        6.972   5.942  15.367  # HNCO
      49       3     1     0.117        5.149   5.789  14.405  # CB
      50       3     1     -0.15        5.688   6.357  13.242  # CB
      51       3     7      0.15        6.664   6.839  13.276  # HCMM
      52       3     1     -0.15        4.991   6.317  12.043  # CB
      53       3     7      0.15        5.411   6.783  11.156  # HCMM
      54       3     1     -0.15        3.872   5.212  14.349  # CB
      55       3     7      0.15        3.437   4.778  15.242  # HCMM
      56       3     1     -0.15        3.177   5.167  13.143  # CB
      57       3     7      0.15        2.200   4.691  13.099  # HCMM
      58       3     1    0.0825        3.737   5.697  11.975  # CB
      59       3     2   -0.5325        3.046   5.606  10.799  # OR
      60       3     8      0.45        3.671   5.718  10.014  # HOCC
      61       4     5     0.061       12.596   5.651   8.025  # CR
      62       4     7         0       13.410   6.273   8.406  # HCMM
      63       4     7         0       12.995   4.644   7.844  # HCMM
      64       4     7         0       12.244   6.055   7.072  # HCMM
      65       4     4     0.569       11.443   5.559   8.992  # C=O
      66       4     6     -0.57       10.277   5.263   8.627  # O=C
      67       4     3    -0.547       11.766   5.802  10.283  # NC=O
      68       4     9      0.37       12.767   5.942  10.472  # HNCO
      69       4     1     0.117       10.944   5.789  11.433  # CB
      70       4     1     -0.15       11.483   6.357  12.596  # CB
      71       4     7      0.15       12.460   6.839  12.563  # HCMM
      72       4     1     -0.15       10.786   6.317  13.796  # CB
      73       4     7      0.15       11.206   6.783  14.683  # HCMM
      74       4     1     -0.15        9.667   5.212  11.490  # CB
      75       4     7      0.15        9.232   4.778  10.597  # HCMM
      76       4     1     -0.15        8.972   5.167  12.696  # CB
      77       4     7      0.15        7.995   4.691  12.740  # HCMM
      78       4     1    0.0825        9.532   5.697  13.864  # CB
      79       4     2   -0.5325        8.841   5.606  15.040  # OR
      80       4     8      0.45        9.467   5.718  15.824  # HOCC
      81       1     5     0.061       12.596   5.327  -0.588  # CR
      82       1     7         0       12.244   4.922  -1.541  # HCMM
      83       1     7         0       12.995   6.334  -0.769  # HCMM
      84       1     7         0       13.410   4.704  -0.207  # HCMM
      85       1     4     0.569       11.443   5.418   0.379  # C=O
      86       1     6     -0.57       10.277   5.714   0.014  # O=C
      87       1     3    -0.547       11.766   5.176   1.670  # NC=O
      88       1     9      0.37       12.767   5.035   1.859  # HNCO
      89       1     1     0.117       10.944   5.188   2.820  # CB
      90       1     1     -0.15       11.483   4.621   3.984  # CB
      91       1     7      0.15       12.460   4.139   3.950  # HCMM
      92       1     1     -0.15       10.786   4.661   5.183  # CB
      93       1     7      0.15       11.206   4.195   6.070  # HCMM
      94       1     1     -0.15        9.667   5.766   2.877  # CB
      95       1     7      0.15        9.232   6.199   1.984  # HCMM
      96       1     1     -0.15        8.972   5.810   4.083  # CB
      97       1     7      0.15        7.995   6.286   4.127  # HCMM
      98       1     1    0.0825        9.532   5.280   5.251  # CB
      99       1     2   -0.5325        8.841   5.372   6.427  # OR
     100       1     8      0.45        9.467   5.260   7.212  # HOCC
     101       2     5     0.061        4.791   1.667  -0.588  # CR
     102       2     7         0        5.143   1.263  -1.541  # HCMM
     103       2     7         0        4.391   2.674  -0.769  # HCMM
     104       2     7         0        3.976   1.045  -0.207  # HCMM
     105       2     4     0.569        5.943   1.759   0.379  # C=O
     106       2     6     -0.57        7.109   2.055   0.014  # O=C
     107       2     3    -0.547        5.620   1.516   1.670  # NC=O
     108       2     9      0.37        4.619   1.376   1.859  # HNCO
     109       2     1     0.117        6.442   1.529   2.820  # CB
     110       2     1     -0.15        5.903   0.962   3.984  # CB
     111       2     7      0.15        4.927   0.480   3.950  # HCMM
     112       2     1     -0.15        6.600   1.002   5.183  # CB
     113       2     7      0.15        6.180   0.536   6.070  # HCMM
     114       2     1     -0.15        7.719   2.106   2.877  # CB
     115       2     7      0.15        8.154   2.540   1.984  # HCMM
     116       2     1     -0.15        8.414   2.151   4.083  # CB
     117       2     7      0.15        9.391   2.627   4.127  # HCMM
     118       2     1    0.0825        7.854   1.621   5.251  # CB
     119       2     2   -0.5325        8.545   1.713   6.427  # OR
     120       2     8      0.45        7.920   1.601   7.212  # HOCC
     121       3     5     0.061        4.791   1.992   8.025  # CR
     122       3     7         0        4.391   0.985   7.844  # HCMM
     123       3     7         0        3.976   2.614   8.406  # HCMM
     124       3     7         0        5.143   2.396   7.072  # HCMM
     125       3     4     0.569        5.943   1.900   8.992  # C=O
     126       3     6     -0.57        7.109   1.604   8.627  # O=C
     127       3     3    -0.547        5.620   2.143  10.283  # NC=O
     128       3     9      0.37        4.619   2.283  10.472  # HNCO
     129       3     1     0.117        6.442   2.130  11.433  # CB
     130       3     1     -0.15        5.903   2.698  12.596  # CB
     131       3     7      0.15        4.927   3.179  12.563  # HCMM
     132       3     1     -0.15        6.600   2.658  13.796  # CB
     133       3     7      0.15        6.180   3.123  14.683  # HCMM
     134       3     1     -0.15        7.719   1.553  11.490  # CB
     135       3     7      0.15        8.154   1.119  10.597  # HCMM
     136       3     1     -0.15        8.414   1.508  12.696  # CB
     137       3     7      0.15        9.391   1.032  12.740  # HCMM
     138       3     1    0.0825        7.854   2.038  13.864  # CB
     139       3     2   -0.5325        8.545   1.947  15.040  # OR
     140       3     8      0.45        7.920   2.059  15.824  # HOCC
     141       4     5     0.061        6.800   5.327   9.200  # CR
     142       4     7         0        7.200   6.334   9.382  # HCMM
     143       4     7         0        7.615   4.704   8.820  # HCMM
     144       4     7         0        6.448   4.922  10.154  # HCMM
     145       4     4     0.569        5.647   5.418   8.234  # C=O
     146       4     6     -0.57        4.482   5.714   8.599  # O=C
     147       4     3    -0.547        5.970   5.176   6.943  # NC=O
     148       4     9      0.37        6.972   5.035   6.754  # HNCO
     149       4     1     0.117        5.149   5.188   5.792  # CB
     150       4     1     -0.15        5.688   4.621   4.629  # CB
     151       4     7      0.15        6.664   4.139   4.663  # HCMM
     152       4     1     -0.15        4.991   4.661   3.430  # CB
     153       4     7      0.15        5.411   4.195   2.543  # HCMM
     154       4     1     -0.15        3.872   5.766   5.736  # CB
     155       4     7      0.15        3.437   6.199   6.629  # HCMM
     156       4     1     -0.15        3.177   5.810   4.530  # CB
     157       4     7      0.15        2.200   6.286   4.486  # HCMM
     158       4     1    0.0825        3.737   5.280   3.362  # CB
     159       4     2   -0.5325        3.046   5.372   2.186  # OR
     160       4     8      0.45        3.671   5.260   1.401  # HOCC
      

Bond Coeffs

       1    301.539      1.492  # C=O  CR  
       2    419.491      1.369  # C=O  NC=O
       3    931.963      1.222  # C=O  O=C 
       4    401.068      1.374  # CB   CB  
       5    381.853      1.084  # CB   HCMM
       6    394.519      1.395  # CB   NC=O
       7    404.019      1.376  # CB   OR  
       8    342.991      1.093  # CR   HCMM
       9    479.511      1.015  # HNCO NC=O
      10    564.143      0.973  # HOCC OR  

Bonds

       1       8       1       2  # CR   HCMM
       2       8       1       3  # CR   HCMM
       3       8       1       4  # CR   HCMM
       4       1       5       1  # C=O  CR  
       5       3       5       6  # C=O  O=C 
       6       2       7       5  # C=O  NC=O
       7       9       7       8  # HNCO NC=O
       8       6       9       7  # CB   NC=O
       9       5      10      11  # CB   HCMM
      10       4      10       9  # CB   CB  
      11       5      12      13  # CB   HCMM
      12       4      12      10  # CB   CB  
      13       5      14      15  # CB   HCMM
      14       4      14      16  # CB   CB  
      15       4      14       9  # CB   CB  
      16       5      16      17  # CB   HCMM
      17       4      16      18  # CB   CB  
      18       4      18      12  # CB   CB  
      19       7      19      18  # CB   OR  
      20      10      19      20  # HOCC OR  
      21       8      21      22  # CR   HCMM
      22       8      21      23  # CR   HCMM
      23       8      21      24  # CR   HCMM
      24       1      25      21  # C=O  CR  
      25       3      25      26  # C=O  O=C 
      26       2      27      25  # C=O  NC=O
      27       9      27      28  # HNCO NC=O
      28       6      29      27  # CB   NC=O
      29       5      30      31  # CB   HCMM
      30       4      30      29  # CB   CB  
      31       5      32      33  # CB   HCMM
      32       4      32      30  # CB   CB  
      33       5      34      35  # CB   HCMM
      34       4      34      36  # CB   CB  
      35       4      34      29  # CB   CB  
      36       5      36      37  # CB   HCMM
      37       4      36      38  # CB   CB  
      38       4      38      32  # CB   CB  
      39       7      39      38  # CB   OR  
      40      10      39      40  # HOCC OR  
      41       8      41      42  # CR   HCMM
      42       8      41      43  # CR   HCMM
      43       8      41      44  # CR   HCMM
      44       1      45      41  # C=O  CR  
      45       3      45      46  # C=O  O=C 
      46       2      47      45  # C=O  NC=O
      47       9      47      48  # HNCO NC=O
      48       6      49      47  # CB   NC=O
      49       5      50      51  # CB   HCMM
      50       4      50      49  # CB   CB  
      51       5      52      53  # CB   HCMM
      52       4      52      50  # CB   CB  
      53       5      54      55  # CB   HCMM
      54       4      54      56  # CB   CB  
      55       4      54      49  # CB   CB  
      56       5      56      57  # CB   HCMM
      57       4      56      58  # CB   CB  
      58       4      58      52  # CB   CB  
      59       7      59      58  # CB   OR  
      60      10      59      60  # HOCC OR  
      61       8      61      62  # CR   HCMM
      62       8      61      63  # CR   HCMM
      63       8      61      64  # CR   HCMM
      64       1      65      61  # C=O  CR  
      65       3      65      66  # C=O  O=C 
      66       2      67      65  # C=O  NC=O
      67       9      67      68  # HNCO NC=O
      68       6      69      67  # CB   NC=O
      69       5      70      71  # CB   HCMM
      70       4      70      69  # CB   CB  
      71       5      72      73  # CB   HCMM
      72       4      72      70  # CB   CB  
      73       5      74      75  # CB   HCMM
      74       4      74      76  # CB   CB  
      75       4      74      69  # CB   CB  
      76       5      76      77  # CB   HCMM
      77       4      76      78  # CB   CB  
      78       4      78      72  # CB   CB  
      79       7      79      78  # CB   OR  
      80      10      79      80  # HOCC OR  
      81       8      81      82 # CR HCMM
      82       8      81      83 # CR HCMM
      83       8      81      84 # CR HCMM
      84       1      85      81 # C=O CR
      85       3      85      86 # C=O O=C
      86       2      87      85 # C=O NC=O
      87       9      87      88 # HNCO NC=O
      88       6      89      87 # CB NC=O
      89       5      90      91 # CB HCMM
      90       4      90      89 # CB CB
      91       5      92      93 # CB HCMM
      92       4      92      90 # CB CB
      93       5      94      95 # CB HCMM
      94       4      94      96 # CB CB
      95       4      94      89 # CB CB
      96       5      96      97 # CB HCMM
      97       4      96      98 # CB CB
      98       4      98      92 # CB CB
      99       7      99      98 # CB OR
     100      10      99     100 # HOCC OR
     101       8     101     102 # CR HCMM
     102       8     101     103 # CR HCMM
     103       8     101     104 # CR HCMM
     104       1     105     101 # C=O CR
     105       3     105     106 # C=O O=C
     106       2     107     105 # C=O NC=O
     107       9     107     108 # HNCO NC=O
     108       6     109     107 # CB NC=O
     109       5     110     111 # CB HCMM
     110       4     110     109 # CB CB
     111       5     112     113 # CB HCMM
     112       4     112     110 # CB CB
     113       5     114     115 # CB HCMM
     114       4     114     116 # CB CB
     115       4     114     109 # CB CB
     116       5     116     117 # CB HCMM
     117       4     116     118 # CB CB
     118       4     118     112 # CB CB
     119       7     119     118 # CB OR
     120      10     119     120 # HOCC OR
     121       8     121     122 # CR HCMM
     122       8     121     123 # CR HCMM
     123       8     121     124 # CR HCMM
     124       1     125     121 # C=O CR
     125       3     125     126 # C=O O=C
     126       2     127     125 # C=O NC=O
     127       9     127     128 # HNCO NC=O
     128       6     129     127 # CB NC=O
     129       5     130     131 # CB HCMM
     130       4     130     129 # CB CB
     131       5     132     133 # CB HCMM
     132       4     132     130 # CB CB
     133       5     134     135 # CB HCMM
     134       4     134     136 # CB CB
     135       4     134     129 # CB CB
     136       5     136     137 # CB HCMM
     137       4     136     138 # CB CB
     138       4     138     132 # CB CB
     139       7     139     138 # CB OR
     140      10     139     140 # HOCC OR
     141       8     141     142 # CR HCMM
     142       8     141     143 # CR HCMM
     143       8     141     144 # CR HCMM
     144       1     145     141 # C=O CR
     145       3     145     146 # C=O O=C
     146       2     147     145 # C=O NC=O
     147       9     147     148 # HNCO NC=O
     148       6     149     147 # CB NC=O
     149       5     150     151 # CB HCMM
     150       4     150     149 # CB CB
     151       5     152     153 # CB HCMM
     152       4     152     150 # CB CB
     153       5     154     155 # CB HCMM
     154       4     154     156 # CB CB
     155       4     154     149 # CB CB
     156       5     156     157 # CB HCMM
     157       4     156     158 # CB CB
     158       4     158     152 # CB CB
     159       7     159     158 # CB OR
     160      10     159     160 # HOCC OR


Angle Coeffs

       1     46.778    108.385          0          0  # C=O  CR   HCMM
       2     73.621    118.596          0          0  # C=O  NC=O CB  
       3      41.38    120.277          0          0  # C=O  NC=O HNCO
       4     48.145    119.977          0          0  # CB   CB   CB  
       5     40.517    120.571          0          0  # CB   CB   HCMM
       6     73.765    117.918          0          0  # CB   CB   NC=O
       7     69.663    116.495          0          0  # CB   CB   OR  
       8     45.194    118.227          0          0  # CB   NC=O HNCO
       9     52.247    105.409          0          0  # CB   OR   HOCC
      10     70.814    112.735          0          0  # CR   C=O  NC=O
      11     67.504     124.41          0          0  # CR   C=O  O=C 
      12     37.134    108.836          0          0  # HCMM CR   HCMM
      13     65.273    127.152          0          0  # NC=O C=O  O=C 

Angles

       1      11       1       5       6  # CR   C=O  O=C 
       2      12       2       1       4  # HCMM CR   HCMM
       3      12       2       1       3  # HCMM CR   HCMM
       4      12       3       1       4  # HCMM CR   HCMM
       5       3       5       7       8  # C=O  NC=O HNCO
       6       1       5       1       4  # C=O  CR   HCMM
       7       1       5       1       3  # C=O  CR   HCMM
       8       1       5       1       2  # C=O  CR   HCMM
       9       6       7       9      10  # CB   CB   NC=O
      10       6       7       9      14  # CB   CB   NC=O
      11      13       7       5       6  # NC=O C=O  O=C 
      12      10       7       5       1  # CR   C=O  NC=O
      13       8       9       7       8  # CB   NC=O HNCO
      14       2       9       7       5  # C=O  NC=O CB  
      15       5      11      10       9  # CB   CB   HCMM
      16       5      11      10      12  # CB   CB   HCMM
      17       4      12      10       9  # CB   CB   CB  
      18       5      13      12      10  # CB   CB   HCMM
      19       5      13      12      18  # CB   CB   HCMM
      20       4      14      16      18  # CB   CB   CB  
      21       4      14       9      10  # CB   CB   CB  
      22       5      15      14       9  # CB   CB   HCMM
      23       5      15      14      16  # CB   CB   HCMM
      24       4      16      18      12  # CB   CB   CB  
      25       4      16      14       9  # CB   CB   CB  
      26       5      17      16      18  # CB   CB   HCMM
      27       5      17      16      14  # CB   CB   HCMM
      28       9      18      19      20  # CB   OR   HOCC
      29       4      18      12      10  # CB   CB   CB  
      30       7      19      18      12  # CB   CB   OR  
      31       7      19      18      16  # CB   CB   OR  
      32      11      21      25      26  # CR   C=O  O=C 
      33      12      22      21      24  # HCMM CR   HCMM
      34      12      22      21      23  # HCMM CR   HCMM
      35      12      23      21      24  # HCMM CR   HCMM
      36       3      25      27      28  # C=O  NC=O HNCO
      37       1      25      21      24  # C=O  CR   HCMM
      38       1      25      21      23  # C=O  CR   HCMM
      39       1      25      21      22  # C=O  CR   HCMM
      40       6      27      29      30  # CB   CB   NC=O
      41       6      27      29      34  # CB   CB   NC=O
      42      13      27      25      26  # NC=O C=O  O=C 
      43      10      27      25      21  # CR   C=O  NC=O
      44       8      29      27      28  # CB   NC=O HNCO
      45       2      29      27      25  # C=O  NC=O CB  
      46       5      31      30      29  # CB   CB   HCMM
      47       5      31      30      32  # CB   CB   HCMM
      48       4      32      30      29  # CB   CB   CB  
      49       5      33      32      30  # CB   CB   HCMM
      50       5      33      32      38  # CB   CB   HCMM
      51       4      34      36      38  # CB   CB   CB  
      52       4      34      29      30  # CB   CB   CB  
      53       5      35      34      29  # CB   CB   HCMM
      54       5      35      34      36  # CB   CB   HCMM
      55       4      36      38      32  # CB   CB   CB  
      56       4      36      34      29  # CB   CB   CB  
      57       5      37      36      38  # CB   CB   HCMM
      58       5      37      36      34  # CB   CB   HCMM
      59       9      38      39      40  # CB   OR   HOCC
      60       4      38      32      30  # CB   CB   CB  
      61       7      39      38      32  # CB   CB   OR  
      62       7      39      38      36  # CB   CB   OR
      63      11      41      45      46  # CR   C=O  O=C 
      64      12      42      41      44  # HCMM CR   HCMM
      65      12      42      41      43  # HCMM CR   HCMM
      66      12      43      41      44  # HCMM CR   HCMM
      67       3      45      47      48  # C=O  NC=O HNCO
      68       1      45      41      44  # C=O  CR   HCMM
      69       1      45      41      43  # C=O  CR   HCMM
      70       1      45      41      42  # C=O  CR   HCMM
      71       6      47      49      50  # CB   CB   NC=O
      72       6      47      49      54  # CB   CB   NC=O
      73      13      47      45      46  # NC=O C=O  O=C 
      74      10      47      45      41  # CR   C=O  NC=O
      75       8      49      47      48  # CB   NC=O HNCO
      76       2      49      47      45  # C=O  NC=O CB  
      77       5      51      50      49  # CB   CB   HCMM
      78       5      51      50      52  # CB   CB   HCMM
      79       4      52      50      49  # CB   CB   CB  
      80       5      53      52      50  # CB   CB   HCMM
      81       5      53      52      58  # CB   CB   HCMM
      82       4      54      56      58  # CB   CB   CB  
      83       4      54      49      50  # CB   CB   CB  
      84       5      55      54      49  # CB   CB   HCMM
      85       5      55      54      56  # CB   CB   HCMM
      86       4      56      58      52  # CB   CB   CB  
      87       4      56      54      49  # CB   CB   CB  
      88       5      57      56      58  # CB   CB   HCMM
      89       5      57      56      54  # CB   CB   HCMM
      90       9      58      59      60  # CB   OR   HOCC
      91       4      58      52      50  # CB   CB   CB  
      92       7      59      58      52  # CB   CB   OR  
      93       7      59      58      56  # CB   CB   OR  
      94      11      61      65      66  # CR   C=O  O=C 
      95      12      62      61      64  # HCMM CR   HCMM
      96      12      62      61      63  # HCMM CR   HCMM
      97      12      63      61      64  # HCMM CR   HCMM
      98       3      65      67      68  # C=O  NC=O HNCO
      99       1      65      61      64  # C=O  CR   HCMM
     100       1      65      61      63  # C=O  CR   HCMM
     101       1      65      61      62  # C=O  CR   HCMM
     102       6      67      69      70  # CB   CB   NC=O
     103       6      67      69      74  # CB   CB   NC=O
     104      13      67      65      66  # NC=O C=O  O=C 
     105      10      67      65      61  # CR   C=O  NC=O
     106       8      69      67      68  # CB   NC=O HNCO
     107       2      69      67      65  # C=O  NC=O CB  
     108       5      71      70      69  # CB   CB   HCMM
     109       5      71      70      72  # CB   CB   HCMM
     110       4      72      70      69  # CB   CB   CB  
     111       5      73      72      70  # CB   CB   HCMM
     112       5      73      72      78  # CB   CB   HCMM
     113       4      74      76      78  # CB   CB   CB  
     114       4      74      69      70  # CB   CB   CB  
     115       5      75      74      69  # CB   CB   HCMM
     116       5      75      74      76  # CB   CB   HCMM
     117       4      76      78      72  # CB   CB   CB  
     118       4      76      74      69  # CB   CB   CB  
     119       5      77      76      78  # CB   CB   HCMM
     120       5      77      76      74  # CB   CB   HCMM
     121       9      78      79      80  # CB   OR   HOCC
     122       4      78      72      70  # CB   CB   CB  
     123       7      79      78      72  # CB   CB   OR  
     124       7      79      78      76  # CB   CB   OR  
     125      11      81      85      86 # CR C=O O=C
     126      12      82      81      84 # HCMM CR HCMM
     127      12      82      81      83 # HCMM CR HCMM
     128      12      83      81      84 # HCMM CR HCMM
     129       3      85      87      88 # C=O NC=O HNCO
     130       1      85      81      84 # C=O CR HCMM
     131       1      85      81      83 # C=O CR HCMM
     132       1      85      81      82 # C=O CR HCMM
     133       6      87      89      90 # CB CB NC=O
     134       6      87      89      94 # CB CB NC=O
     135      13      87      85      86 # NC=O C=O O=C
     136      10      87      85      81 # CR C=O NC=O
     137       8      89      87      88 # CB NC=O HNCO
     138       2      89      87      85 # C=O NC=O CB
     139       5      91      90      89 # CB CB HCMM
     140       5      91      90      92 # CB CB HCMM
     141       4      92      90      89 # CB CB CB
     142       5      93      92      90 # CB CB HCMM
     143       5      93      92      98 # CB CB HCMM
     144       4      94      96      98 # CB CB CB
     145       4      94      89      90 # CB CB CB
     146       5      95      94      89 # CB CB HCMM
     147       5      95      94      96 # CB CB HCMM
     148       4      96      98      92 # CB CB CB
     149       4      96      94      89 # CB CB CB
     150       5      97      96      98 # CB CB HCMM
     151       5      97      96      94 # CB CB HCMM
     152       9      98      99     100 # CB OR HOCC
     153       4      98      92      90 # CB CB CB
     154       7      99      98      92 # CB CB OR
     155       7      99      98      96 # CB CB OR
     156      11     101     105     106 # CR C=O O=C
     157      12     102     101     104 # HCMM CR HCMM
     158      12     102     101     103 # HCMM CR HCMM
     159      12     103     101     104 # HCMM CR HCMM