160
# CELL(abcABC):   21.91078    13.83422    32.56295    90.00000    90.00000    90.00000  Traj: positions{angstrom} Step:          96  Bead:       0 
       C -1.18831e+00  1.97776e+00  1.77597e+01
       H -8.54105e-01  2.30769e+00  1.87460e+01
       H -1.88487e+00  2.72794e+00  1.73712e+01
       H -1.69679e+00  1.01438e+00  1.78458e+01
       C  9.00323e-03  1.83276e+00  1.68697e+01
       O  1.08832e+00  1.46930e+00  1.73153e+01
       N -2.80808e-01  2.17800e+00  1.55722e+01
       H -1.24538e+00  2.44438e+00  1.53785e+01
       C  5.61344e-01  2.15323e+00  1.44471e+01
       C  1.22037e-02  2.67344e+00  1.32731e+01
       H -9.81644e-01  3.10591e+00  1.32848e+01
       C  7.31993e-01  2.64946e+00  1.20756e+01
       H  3.04582e-01  3.07299e+00  1.11750e+01
       C  1.85217e+00  1.60500e+00  1.44234e+01
       H  2.27584e+00  1.16051e+00  1.53123e+01
       C  2.57721e+00  1.57260e+00  1.32230e+01
       H  3.56109e+00  1.11947e+00  1.31840e+01
       C  2.00233e+00  2.08979e+00  1.20636e+01
       O  2.68790e+00  2.02547e+00  1.08758e+01
       H  2.01793e+00  2.21190e+00  1.01724e+01
       C -1.18799e+00  1.68019e+00  9.14317e+00
       H -8.53929e-01  1.34978e+00  1.01293e+01
       H -1.69616e+00  2.64370e+00  9.22963e+00
       H -1.88480e+00  9.30400e-01  8.75438e+00
       C  9.26639e-03  1.82492e+00  8.25315e+00
       O  1.08879e+00  2.18826e+00  8.69896e+00
       N -2.80480e-01  1.48012e+00  6.95573e+00
       H -1.24505e+00  1.21361e+00  6.76196e+00
       C  5.61695e-01  1.50477e+00  5.83057e+00
       C  1.25783e-02  9.84490e-01  4.65665e+00
       H -9.81258e-01  5.51982e-01  4.66826e+00
       C  7.32371e-01  1.00842e+00  3.45917e+00
       H  3.05081e-01  5.84728e-01  2.55862e+00
       C  1.85253e+00  2.05304e+00  5.80691e+00
       H  2.27622e+00  2.49752e+00  6.69582e+00
       C  2.57750e+00  2.08549e+00  4.60648e+00
       H  3.56135e+00  2.53868e+00  4.56743e+00
       C  2.00264e+00  1.56820e+00  3.44706e+00
       O  2.68811e+00  1.63256e+00  2.25925e+00
       H  2.01803e+00  1.44606e+00  1.55594e+00
       C  6.98155e+00  5.63803e+00  1.77599e+01
       H  6.64729e+00  5.96790e+00  1.87462e+01
       H  7.49011e+00  4.67470e+00  1.78461e+01
       H  7.67806e+00  6.38828e+00  1.73715e+01
       C  5.78433e+00  5.49306e+00  1.68698e+01
       O  4.70494e+00  5.12953e+00  1.73154e+01
       N  6.07414e+00  5.83817e+00  1.55724e+01
       H  7.03870e+00  6.10471e+00  1.53787e+01
       C  5.23201e+00  5.81343e+00  1.44472e+01
       C  5.78105e+00  6.33390e+00  1.32734e+01
       H  6.77483e+00  6.76652e+00  1.32851e+01
       C  5.06128e+00  6.30997e+00  1.20759e+01
       H  5.48860e+00  6.73368e+00  1.11753e+01
       C  3.94128e+00  5.26495e+00  1.44235e+01
       H  3.51772e+00  4.82021e+00  1.53123e+01
       C  3.21627e+00  5.23261e+00  1.32231e+01
       H  2.23248e+00  4.77927e+00  1.31840e+01
       C  3.79105e+00  5.75008e+00  1.20637e+01
       O  3.10552e+00  5.68576e+00  1.08759e+01
       H  3.77545e+00  5.87235e+00  1.01725e+01
       C  1.27788e+01  5.63812e+00  8.08263e+00
       H  1.34756e+01  6.38791e+00  8.47142e+00
       H  1.32870e+01  4.67462e+00  7.99618e+00
       H  1.24447e+01  5.96852e+00  7.09651e+00
       C  1.15815e+01  5.49339e+00  8.97265e+00
       O  1.05020e+01  5.13004e+00  8.52684e+00
       N  1.18713e+01  5.83819e+00  1.02701e+01
       H  1.28359e+01  6.10469e+00  1.04638e+01
       C  1.10291e+01  5.81353e+00  1.13952e+01
       C  1.15782e+01  6.33381e+00  1.25691e+01
       H  1.25721e+01  6.76632e+00  1.25575e+01
       C  1.08584e+01  6.30988e+00  1.37666e+01
       H  1.12857e+01  6.73357e+00  1.46672e+01
       C  9.73827e+00  5.26526e+00  1.14189e+01
       H  9.31458e+00  4.82079e+00  1.05300e+01
       C  9.01330e+00  5.23281e+00  1.26193e+01
       H  8.02945e+00  4.77962e+00  1.26584e+01
       C  9.58816e+00  5.75010e+00  1.37787e+01
       O  8.90268e+00  5.68573e+00  1.49665e+01
       H  9.57276e+00  5.87224e+00  1.56699e+01
       C  1.27791e+01  5.34054e+00 -5.33919e-01
       H  1.24449e+01  5.01061e+00 -1.52019e+00
       H  1.32876e+01  6.30391e+00 -6.20029e-01
       H  1.34757e+01  4.59035e+00 -1.45389e-01
       C  1.15818e+01  5.48555e+00  3.56116e-01
       O  1.05025e+01  5.84898e+00 -8.94448e-02
       N  1.18716e+01  5.14029e+00  1.65356e+00
       H  1.28362e+01  4.87392e+00  1.84729e+00
       C  1.10295e+01  5.16507e+00  2.77874e+00
       C  1.15786e+01  4.64486e+00  3.95269e+00
       H  1.25724e+01  4.21239e+00  3.94103e+00
       C  1.08588e+01  4.66885e+00  5.15018e+00
       H  1.12862e+01  4.24532e+00  6.05076e+00
       C  9.73862e+00  5.71330e+00  2.80238e+00
       H  9.31496e+00  6.15779e+00  1.91346e+00
       C  9.01359e+00  5.74570e+00  4.00279e+00
       H  8.02971e+00  6.19883e+00  4.04179e+00
       C  9.58847e+00  5.22851e+00  5.16225e+00
       O  8.90290e+00  5.29284e+00  6.35003e+00
       H  9.57287e+00  5.10641e+00  7.05344e+00
       C  4.60924e+00  1.68026e+00 -5.34139e-01
       H  4.94351e+00  1.35040e+00 -1.52040e+00
       H  4.10068e+00  2.64359e+00 -6.20250e-01
       H  3.91273e+00  9.30011e-01 -1.45674e-01
       C  5.80650e+00  1.82525e+00  3.55962e-01
       O  6.88583e+00  2.18875e+00 -8.95989e-02
       N  5.51664e+00  1.48012e+00  1.65338e+00
       H  4.55209e+00  1.21359e+00  1.84708e+00
       C  6.35879e+00  1.50487e+00  2.77856e+00
       C  5.80974e+00  9.84399e-01  3.95243e+00
       H  4.81596e+00  5.51785e-01  3.94072e+00
       C  6.52952e+00  1.00834e+00  5.14993e+00
       H  6.10219e+00  5.84617e-01  6.05045e+00
       C  7.64951e+00  2.05335e+00  2.80229e+00
       H  8.07308e+00  2.49809e+00  1.91346e+00
       C  8.37453e+00  2.08569e+00  4.00270e+00
       H  9.35831e+00  2.53902e+00  4.04179e+00
       C  7.79975e+00  1.56822e+00  5.16208e+00
       O  8.48528e+00  1.63254e+00  6.34987e+00
       H  7.81534e+00  1.44595e+00  7.05326e+00
       C  4.60959e+00  1.97757e+00  8.08236e+00
       H  4.10124e+00  1.01414e+00  7.99608e+00
       H  3.91292e+00  2.72758e+00  8.47099e+00
       H  4.94376e+00  2.30770e+00  7.09618e+00
       C  5.80678e+00  1.83277e+00  8.97243e+00
       O  6.88632e+00  1.46938e+00  8.52668e+00
       N  5.51702e+00  2.17764e+00  1.02698e+01
       H  4.55248e+00  2.44429e+00  1.04636e+01
       C  6.35918e+00  2.15294e+00  1.13950e+01
       C  5.81016e+00  2.67347e+00  1.25688e+01
       H  4.81641e+00  3.10617e+00  1.25572e+01
       C  6.52993e+00  2.64952e+00  1.37663e+01
       H  6.10271e+00  3.07336e+00  1.46669e+01
       C  7.64990e+00  1.60439e+00  1.14187e+01
       H  8.07350e+00  1.15967e+00  1.05299e+01
       C  8.37485e+00  1.57194e+00  1.26192e+01
       H  9.35859e+00  1.11852e+00  1.26583e+01
       C  7.80007e+00  2.08947e+00  1.37785e+01
       O  8.48548e+00  2.02500e+00  1.49664e+01
       H  7.81541e+00  2.21161e+00  1.56697e+01
       C  6.98121e+00  5.34073e+00  9.14344e+00
       H  7.48955e+00  6.30416e+00  9.22973e+00
       H  7.67788e+00  4.59073e+00  8.75481e+00
       H  6.64704e+00  5.01060e+00  1.01296e+01
       C  5.78400e+00  5.48553e+00  8.25337e+00
       O  4.70449e+00  5.84892e+00  8.69911e+00
       N  6.07378e+00  5.14065e+00  6.95596e+00
       H  7.03831e+00  4.87401e+00  6.76223e+00
       C  5.23161e+00  5.16536e+00  5.83080e+00
       C  5.78063e+00  4.64482e+00  4.65695e+00
       H  6.77439e+00  4.21213e+00  4.66861e+00
       C  5.06087e+00  4.66878e+00  3.45945e+00
       H  5.48808e+00  4.24493e+00  2.55893e+00
       C  3.94089e+00  5.71391e+00  5.80706e+00
       H  3.51730e+00  6.15864e+00  6.69589e+00
       C  3.21595e+00  5.74636e+00  4.60660e+00
       H  2.23221e+00  6.19978e+00  4.56748e+00
       C  3.79073e+00  5.22883e+00  3.44726e+00
       O  3.10532e+00  5.29330e+00  2.25942e+00
       H  3.77538e+00  5.10668e+00  1.55612e+00
