# Hessian matrix (atomic units)
0.151638413142 0 0
0 0.151638413142 0
0 0 0.151638413142 
