LAMMPS (9 Oct 2014-ICMS)
# (written by ASE)

units metal
boundary p p p
atom_modify sort 0 0.0

read_data data_lammps
  orthogonal box = (0 0 0) to (1 2 3)
  1 by 1 by 1 MPI processor grid
  reading atoms ...
  2 atoms

### interactions
pair_style lj/cut 2.5
pair_coeff * * 1 1
mass * 1.0

### run
fix  1 all ipi driver 1234 unix

thermo_style custom step temp press cpu pxx pyy pzz pxy pxz pyz ke pe etotal vol lx ly lz atoms
thermo_modify flush yes
thermo 1
run 1999999999
WARNING: Proc sub-domain size < neighbor skin - could lead to lost atoms (../comm.cpp:189)
Memory usage per processor = 1.91487 Mbytes
Step Temp Press CPU Pxx Pyy Pzz Pxy Pxz Pyz KinEng PotEng TotEng Volume Lx Ly Lz Atoms 
       0            0 8.9057045e+08            0     11495006   -606323.74 2.6608227e+09            0            0 -3.7057776e-12            0    798.67679    798.67679            6            1            2            3        2 
       1            0 1.2976944e+13    1.0009091 3.8641955e+11    -30502166 3.8544442e+13 -4.3513619e-09   0.01104135  0.011077141            0    1798744.6    1798744.6   0.88910826   0.52917721    1.0583544    1.5875316        2 
       2            0 2.3524808e+11     1.019381 3.5856918e+11    -40395001 3.4721547e+11 3.0790887e-09 -0.00019953218 -0.00021648208            0    32279.891    32279.891   0.88910826   0.52917721    1.0583544    1.5875316        2 
       3            0 2.3524808e+11     1.021184 3.5856918e+11    -40395001 3.4721547e+11 3.0790887e-09 -0.00019953218 -0.00021648208            0    32279.891    32279.891   0.88910826   0.52917721    1.0583544    1.5875316        2 
       4            0 2.233521e+11    1.0347071 3.5834293e+11    -40532137 3.1175391e+11 2.450767e-09   -3.8178273   -4.4219641            0    30636.813    30636.813   0.88910826   0.52917721    1.0583544    1.5875316        2 
       5            0 2.233521e+11    1.0359259 3.5834293e+11    -40532137 3.1175391e+11 2.450767e-09   -3.8178273   -4.4219641            0    30636.813    30636.813   0.88910826   0.52917721    1.0583544    1.5875316        2 
       6            0 1.6400645e+11    1.0465059 3.569428e+11    -41430969 1.3511798e+11   0.28804995   -172100.16   -226175.88            0    22449.205    22449.205   0.88910826   0.52917721    1.0583544    1.5875316        2 
       7            0 1.6400645e+11    1.0475969 3.569428e+11    -41430969 1.3511798e+11   0.28804995   -172100.16   -226175.88            0    22449.205    22449.205   0.88910826   0.52917721    1.0583544    1.5875316        2 
       8            0 1.4508064e+11     1.055022 3.5632971e+11    -26081158 7.8938297e+10     10161376 -7.1961988e+08 -1.1145169e+09            0    19844.687    19844.687   0.88910826   0.52917721    1.0583544    1.5875316        2 
       9            0 1.4508064e+11    1.0559361 3.5632971e+11    -26081158 7.8938297e+10     10161376 -7.1961988e+08 -1.1145169e+09            0    19844.687    19844.687   0.88910826   0.52917721    1.0583544    1.5875316        2 
      10            0 6.7852586e+12     1.064363 3.2701219e+12 9.7089509e+11 1.6114759e+13 -1.607553e+12 -6.5492096e+12 3.9554947e+12            0    940069.67    940069.67   0.88910826   0.52917721    1.0583544    1.5875316        2 
      11            0 1.1990575e+11      1.06496 3.5529395e+11     59117618 4.3641946e+09    -50485167 -3.1775557e+08 6.0134021e+08            0    16404.017    16404.017   0.88910826   0.52917721    1.0583544    1.5875316        2 
      12            0 1.1990575e+11    1.0658109 3.5529395e+11     59117618 4.3641946e+09    -50485167 -3.1775557e+08 6.0134021e+08            0    16404.017    16404.017   0.88910826   0.52917721    1.0583544    1.5875316        2 
      13            0 1.1890463e+11     1.072834 3.5496865e+11 1.7881953e+08 1.5664286e+09     33068209     78960626 4.4294449e+08            0    16272.636    16272.636   0.88910826   0.52917721    1.0583544    1.5875316        2 
      14            0 1.1890463e+11    1.0735281 3.5496865e+11 1.7881953e+08 1.5664286e+09     33068209     78960626 4.4294449e+08            0    16272.636    16272.636   0.88910826   0.52917721    1.0583544    1.5875316        2 
      15            0 1.1948681e+11    1.0799091 3.5498263e+11 1.1657545e+08 3.3612333e+09    -33982641 1.4158348e+08 -6.0846285e+08            0    16349.094    16349.094   0.88910826   0.52917721    1.0583544    1.5875316        2 
      16            0 1.1845262e+11    1.0803959 3.5484895e+11 1.6281288e+08 3.4611071e+08    1517093.9    4234552.9     77064431            0    16215.048    16215.048   0.88910826   0.52917721    1.0583544    1.5875316        2 
      17            0 1.1845262e+11     1.081063 3.5484895e+11 1.6281288e+08 3.4611071e+08    1517093.9    4234552.9     77064431            0    16215.048    16215.048   0.88910826   0.52917721    1.0583544    1.5875316        2 
      18            0 1.1907454e+11     1.087527 3.5506424e+11 1.397927e+08 2.0195957e+09    -17991051     53775972 -4.7363415e+08            0    16294.394    16294.394   0.88910826   0.52917721    1.0583544    1.5875316        2 
      19            0 1.1844155e+11     1.088105 3.5483842e+11 1.6496201e+08 3.2128283e+08    184521.98     11088536    3071189.5            0    16213.664    16213.664   0.88910826   0.52917721    1.0583544    1.5875316        2 
      20            0 1.1844155e+11     1.088774 3.5483842e+11 1.6496201e+08 3.2128283e+08    184521.98     11088536    3071189.5            0    16213.664    16213.664   0.88910826   0.52917721    1.0583544    1.5875316        2 
      21            0 1.1843916e+11    1.0975621 3.5484416e+11 1.6075593e+08 3.125581e+08     185510.8    4898133.9    6806423.4            0    16213.367    16213.367   0.88910826   0.52917721    1.0583544    1.5875316        2 
      22            0 1.1843916e+11    1.0982599 3.5484416e+11 1.6075593e+08 3.125581e+08     185510.8    4898133.9    6806423.4            0    16213.367    16213.367   0.88910826   0.52917721    1.0583544    1.5875316        2 
      23            0 1.1843883e+11    1.1050251 3.5484505e+11 1.6024345e+08 3.1118331e+08    13843.648    648265.09      3356669            0    16213.318    16213.318   0.88910826   0.52917721    1.0583544    1.5875316        2 
      24            0 1.1843883e+11     1.105845 3.5484505e+11 1.6024345e+08 3.1118331e+08    13843.648    648265.09      3356669            0    16213.318    16213.318   0.88910826   0.52917721    1.0583544    1.5875316        2 
      25            0 1.1843864e+11    1.1128209 3.5484494e+11 1.6005773e+08 3.1092564e+08    17261.702    1280581.3      2272335            0    16213.297    16213.297   0.88910826   0.52917721    1.0583544    1.5875316        2 
      26            0 1.1843864e+11     1.113754 3.5484494e+11 1.6005773e+08 3.1092564e+08    17261.702    1280581.3      2272335            0    16213.297    16213.297   0.88910826   0.52917721    1.0583544    1.5875316        2 
      27            0 1.1843687e+11    1.1203949 3.5484348e+11   1.5819e+08 3.0894417e+08   -126560.42    4772936.5   -4629756.6            0    16213.094    16213.094   0.88910826   0.52917721    1.0583544    1.5875316        2 
      28            0 1.1843687e+11    1.1211419 3.5484348e+11   1.5819e+08 3.0894417e+08   -126560.42    4772936.5   -4629756.6            0    16213.094    16213.094   0.88910826   0.52917721    1.0583544    1.5875316        2 
      29            0 1.1843324e+11    1.1292081 3.5483973e+11 1.5433666e+08 3.056567e+08   -486748.21    7861734.2    -11842861            0    16212.653    16212.653   0.88910826   0.52917721    1.0583544    1.5875316        2 
      30            0 1.1843324e+11     1.130178 3.5483973e+11 1.5433666e+08 3.056567e+08   -486748.21    7861734.2    -11842861            0    16212.653    16212.653   0.88910826   0.52917721    1.0583544    1.5875316        2 
      31            0 1.1842338e+11    1.1370029 3.5482978e+11 1.4366111e+08 2.9669453e+08   -1312606.4    9742331.2    -20027472            0    16211.488    16211.488   0.88910826   0.52917721    1.0583544    1.5875316        2 
      32            0 1.1842338e+11    1.1376851 3.5482978e+11 1.4366111e+08 2.9669453e+08   -1312606.4    9742331.2    -20027472            0    16211.488    16211.488   0.88910826   0.52917721    1.0583544    1.5875316        2 
      33            0 1.1840376e+11     1.144623 3.5481567e+11 1.2218745e+08 2.7343314e+08   -437738.36    1787708.7    -15561117            0    16209.199    16209.199   0.88910826   0.52917721    1.0583544    1.5875316        2 
      34            0 1.1840376e+11    1.1454101 3.5481567e+11 1.2218745e+08 2.7343314e+08   -437738.36    1787708.7    -15561117            0    16209.199    16209.199   0.88910826   0.52917721    1.0583544    1.5875316        2 
      35            0 1.1843485e+11    1.1523991 3.5481968e+11 1.6018051e+08 3.246935e+08    98347.878    1159513.1     14112602            0    16212.935    16212.935   0.88910826   0.52917721    1.0583544    1.5875316        2 
      36            0 1.1838207e+11    1.1531971 3.5482308e+11     96369421 2.2674631e+08    677541.99   -153504.52   -356860.45            0    16206.545    16206.545   0.88910826   0.52917721    1.0583544    1.5875316        2 
      37            0 1.1838207e+11      1.15431 3.5482308e+11     96369421 2.2674631e+08    677541.99   -153504.52   -356860.45            0    16206.545    16206.545   0.88910826   0.52917721    1.0583544    1.5875316        2 
      38            0 1.1839606e+11    1.1615679 3.548212e+11 1.1393356e+08 2.530308e+08   -177984.67   -5019416.6      1850812            0     16208.22     16208.22   0.88910826   0.52917721    1.0583544    1.5875316        2 
      39            0 1.1838045e+11    1.1622491 3.5482722e+11     94145755 2.199854e+08    269973.88    426673.49    1836378.5            0    16206.377    16206.377   0.88910826   0.52917721    1.0583544    1.5875316        2 
      40            0 1.1838045e+11    1.1629469 3.5482722e+11     94145755 2.199854e+08    269973.88    426673.49    1836378.5            0    16206.377    16206.377   0.88910826   0.52917721    1.0583544    1.5875316        2 
      41            0 1.1837966e+11    1.1697879 3.5482718e+11     93752099 2.1804124e+08    82836.534    302008.47    617705.25            0     16206.28     16206.28   0.88910826   0.52917721    1.0583544    1.5875316        2 
      42            0 1.1837966e+11     1.170692 3.5482718e+11     93752099 2.1804124e+08    82836.534    302008.47    617705.25            0     16206.28     16206.28   0.88910826   0.52917721    1.0583544    1.5875316        2 
      43            0 1.1837929e+11    1.1775301 3.5482715e+11     93390152 2.1733735e+08   -45177.323    184590.44   -260798.21            0    16206.236    16206.236   0.88910826   0.52917721    1.0583544    1.5875316        2 
      44            0 1.1837929e+11    1.1783309 3.5482715e+11     93390152 2.1733735e+08   -45177.323    184590.44   -260798.21            0    16206.236    16206.236   0.88910826   0.52917721    1.0583544    1.5875316        2 
      45            0 1.1837922e+11    1.1863561 3.5482721e+11     93277506 2.1717035e+08   -48086.295    140420.09    -286610.4            0    16206.226    16206.226   0.88910826   0.52917721    1.0583544    1.5875316        2 
      46            0 1.1837922e+11    1.1873341 3.5482721e+11     93277506 2.1717035e+08   -48086.295    140420.09    -286610.4            0    16206.226    16206.226   0.88910826   0.52917721    1.0583544    1.5875316        2 
      47            0 1.1837893e+11     1.194329 3.5482732e+11     92928078 2.1654075e+08   -9822.1818    6945.7095   -69346.749            0    16206.191    16206.191   0.88910826   0.52917721    1.0583544    1.5875316        2 
      48            0 1.1837893e+11    1.1952009 3.5482732e+11     92928078 2.1654075e+08   -9822.1818    6945.7095   -69346.749            0    16206.191    16206.191   0.88910826   0.52917721    1.0583544    1.5875316        2 
      49            0 1.1837887e+11     1.201915 3.5482731e+11     92902877 2.1639823e+08    263.54711   -17.761481   -1202.7962            0    16206.183    16206.183   0.88910826   0.52917721    1.0583544    1.5875316        2 
      50            0 1.1837887e+11     1.202518 3.5482731e+11     92902877 2.1639823e+08    263.54711   -17.761481   -1202.7962            0    16206.183    16206.183   0.88910826   0.52917721    1.0583544    1.5875316        2 
      51            0 1.1837886e+11      1.20976 3.5482731e+11     92901514 2.1637409e+08     35.91037     43.83392    195.45518            0    16206.182    16206.182   0.88910826   0.52917721    1.0583544    1.5875316        2 
      52            0 1.1837886e+11    1.2106109 3.5482731e+11     92901514 2.1637409e+08     35.91037     43.83392    195.45518            0    16206.182    16206.182   0.88910826   0.52917721    1.0583544    1.5875316        2 
      53            0 1.1837886e+11    1.2187319 3.5482731e+11     92901390 2.1637367e+08  0.080074119    0.8451455    0.4269829            0    16206.182    16206.182   0.88910826   0.52917721    1.0583544    1.5875316        2 
      54            0 1.1837886e+11    1.2195959 3.5482731e+11     92901390 2.1637367e+08  0.080074119    0.8451455    0.4269829            0    16206.182    16206.182   0.88910826   0.52917721    1.0583544    1.5875316        2 
      55            0 1.1837886e+11     1.226265 3.5482731e+11     92901388 2.1637366e+08 -0.00025240661 0.00043917581 -0.0034251948            0    16206.182    16206.182   0.88910826   0.52917721    1.0583544    1.5875316        2 
      56            0 1.1837886e+11     1.227164 3.5482731e+11     92901388 2.1637366e+08 -0.00025240661 0.00043917581 -0.0034251948            0    16206.182    16206.182   0.88910826   0.52917721    1.0583544    1.5875316        2 
      57            0 1.1837886e+11    1.2337761 3.5482731e+11     92901388 2.1637366e+08 -1.2847341e-06 -2.0406512e-06 5.2348259e-06            0    16206.182    16206.182   0.88910826   0.52917721    1.0583544    1.5875316        2 
      58            0 1.1837886e+11     1.234494 3.5482731e+11     92901388 2.1637366e+08 -0.00025240661 0.00043917581 -0.0034251948            0    16206.182    16206.182   0.88910826   0.52917721    1.0583544    1.5875316        2 
