9
# CELL(abcABC):  130.18034   170.29206   240.21758    90.00000    90.00000    90.00000  cell{atomic_unit}  Traj: x_centroid{angstrom} Step:           1  Bead:       0 
       O -9.01041e-03 -1.02865e+00  3.10117e-01
       H -8.45391e-01 -1.04281e+00 -1.55640e-01
       H  6.65762e-01 -1.16045e+00 -3.69641e-01
       O  1.52715e+00  1.26444e+00  8.41784e-01
       H  1.85354e+00  1.34275e+00  1.73810e+00
       H  8.26974e-01  5.94592e-01  8.79926e-01
       O  2.29917e+00 -5.02788e-01 -1.17036e+00
       H  3.05557e+00 -4.57187e-01 -1.75205e+00
       H  2.35666e+00  2.56299e-01 -5.71978e-01
