LAMMPS Description
 
         384  atoms
         256  bonds
         128  angles
 
           2  atom types
           1  bond types
           1  angle types
 
         -7.81931 7.81931 xlo xhi
         -7.81931 7.81931 ylo yhi
         -7.81931 7.81931 zlo zhi
 
Masses
 
  1 15.9994
  2  1.0080
 
Bond Coeffs
 
  1    1.78    0.2708585 -0.327738785 0.231328959
 
Angle Coeffs
 
  1    0.0700  107.400000

Atoms
 
 1 1 1 -1.1128       3.84600000       5.67200001       1.32300000
 2 1 2 0.5564        2.97900000       7.05400000       0.85700000
 3 1 2 0.5564        5.52500001       5.69700001       0.45100000
 4 2 1 -1.1128      34.55700001      34.34100000       3.07800000
 5 2 2 0.5564       33.72200001      34.68900000       4.84000001
 6 2 2 0.5564       36.02900000      33.22000001       3.71100001
 7 3 1 -1.1128       5.59100000       1.96299999      13.47700000
 8 3 2 0.5564        7.26500000       1.86400000      13.85100001
 9 3 2 0.5564        5.00899999       3.55500000      13.91599999
 10 4 1 -1.1128       1.06000000       2.06100000      21.71800001
 11 4 2 0.5564        0.75700000       0.26100000      21.82000000
 12 4 2 0.5564        0.21300001       3.01299999      23.04700000
 13 5 1 -1.1128       1.20000000       1.33700000      29.00599999
 14 5 2 0.5564        0.81800000       1.88399999      30.73200000
 15 5 2 0.5564        2.88300001       1.82500000      29.01100000
 16 6 1 -1.1128       1.33100001       1.38599999      34.30600001
 17 6 2 0.5564        2.39200001       2.89799999      34.84600000
 18 6 2 0.5564        0.81400000       0.53200001      35.83600000
 19 7 1 -1.1128      31.45100000      10.20100000       0.72599999
 20 7 2 0.5564       32.28199999      10.87699999      -0.75000000
 21 7 2 0.5564       30.91999999      11.59399999       1.67700000
 22 8 1 -1.1128       0.83600000      10.80800001       4.29800000
 23 8 2 0.5564        0.30500000      10.64300001       2.79300000
 24 8 2 0.5564       -0.35600001      10.33400000       5.52400000
 25 9 1 -1.1128      34.38100001       5.97900000       9.19400000
 26 9 2 0.5564       33.61600000       7.67300000       8.85700000
 27 9 2 0.5564       35.11500000       5.25999999       7.61800001
 28 10 1 -1.1128      33.21200000       6.48000000      24.27799999
 29 10 2 0.5564       31.62400000       6.90800001      23.52100001
 30 10 2 0.5564       32.54400000       4.99000000      24.98200000
 31 11 1 -1.1128       1.99200000       9.00199999      26.86300000
 32 11 2 0.5564        1.85600000      10.17500000      25.57899999
 33 11 2 0.5564        0.51900000       8.09899999      26.38599999
 34 12 1 -1.1128       2.05400000       8.66000000      32.51499999
 35 12 2 0.5564        2.16699999       8.72700000      30.49400000
 36 12 2 0.5564        2.37400001      10.51300000      33.03799999
 37 13 1 -1.1128       3.40200000      16.63900001       3.00800000
 38 13 2 0.5564        4.12700001      15.87200001       4.44600001
 39 13 2 0.5564        2.90500001      18.33899999       3.15999999
 40 14 1 -1.1128       4.22200000      15.44400000       8.07200000
 41 14 2 0.5564        5.21100000      16.75600000       8.29900001
 42 14 2 0.5564        2.56000000      15.49200001       8.86000000
 43 15 1 -1.1128       2.83100000       9.24599999      16.48800000
 44 15 2 0.5564        2.86900001       8.02300001      18.05000000
 45 15 2 0.5564        3.96000000       8.46700001      15.15400000
 46 16 1 -1.1128       5.56300000       6.00300000      20.90700000
 47 16 2 0.5564        4.65300000       4.63800000      21.48000000
 48 16 2 0.5564        6.40500000       6.20800000      22.52899999
 49 17 1 -1.1128       2.08700001      13.37000000      22.91299999
 50 17 2 0.5564        2.83200000      14.80400001      23.42200000
 51 17 2 0.5564        1.43400000      13.50900000      21.19599999
 52 18 1 -1.1128       3.36900000      17.88600000      25.10900001
 53 18 2 0.5564        3.65500000      17.20000000      26.76599999
 54 18 2 0.5564        4.77200001      18.97699999      24.49999999
 55 19 1 -1.1128      34.76400000      20.80300000       0.94800001
 56 19 2 0.5564       35.20999999      21.26700001       2.81599999
 57 19 2 0.5564       35.96200001      21.72599999       0.13099999
 58 20 1 -1.1128       2.83600000      24.17799999      15.22900000
 59 20 2 0.5564        2.79500000      22.34599999      14.87600001
 60 20 2 0.5564        2.41399999      24.11500000      17.13000001
 61 21 1 -1.1128      33.00000000      24.48100000      15.23000000
 62 21 2 0.5564       34.63999999      24.80400001      15.01299999
 63 21 2 0.5564       32.40100000      25.76400000      14.29500001
 64 22 1 -1.1128       0.40399999      26.77900001      23.39999999
 65 22 2 0.5564        1.35300001      27.24800000      24.98700001
 66 22 2 0.5564        1.54600001      28.05000000      22.31700001
 67 23 1 -1.1128      34.22200000      21.38000000      25.41799999
 68 23 2 0.5564       35.66899999      20.15100000      25.31700001
 69 23 2 0.5564       32.96000000      21.18000000      23.99200000
 70 24 1 -1.1128      33.25900000      17.43800000      32.48000000
 71 24 2 0.5564       33.31399999      18.78200000      33.88300001
 72 24 2 0.5564       32.74300001      18.18100001      30.87100000
 73 25 1 -1.1128       4.46300000      21.97900000       3.93600000
 74 25 2 0.5564        5.85600000      23.08400001       3.39999999
 75 25 2 0.5564        3.98600000      22.18000000       5.60200000
 76 26 1 -1.1128       6.25800000      25.85100001       8.52000000
 77 26 2 0.5564        5.76700000      27.69300001       8.47600000
 78 26 2 0.5564        7.20200001      25.50600000      10.18600000
 79 27 1 -1.1128       0.60099999      29.73699999      12.74700001
 80 27 2 0.5564       -0.68500000      30.84200000      12.34999999
 81 27 2 0.5564        1.33600000      30.71600000      14.03099999
 82 28 1 -1.1128       7.56300000      28.19100001      24.33300000
 83 28 2 0.5564        9.20100000      28.82800000      24.68400000
 84 28 2 0.5564        7.38100001      27.62100000      22.79900000
 85 29 1 -1.1128       3.65300000      27.10900001      27.77200001
 86 29 2 0.5564        5.12600000      27.01500000      26.77200001
 87 29 2 0.5564        3.03099999      28.75600000      27.69800000
 88 30 1 -1.1128       2.59600001      23.99100001      32.47600000
 89 30 2 0.5564        2.87900000      24.79099999      30.85899999
 90 30 2 0.5564        4.00300000      22.91299999      32.70099999
 91 31 1 -1.1128       3.08300000      31.31700001       3.64399999
 92 31 2 0.5564        4.13300000      30.58900001       2.53900001
 93 31 2 0.5564        4.21800000      32.17300001       5.03700001
 94 32 1 -1.1128       4.66100001      30.55500000       9.36799999
 95 32 2 0.5564        3.18400001      29.84300000      10.13200000
 96 32 2 0.5564        4.35800000      32.44800000       9.12600000
 97 33 1 -1.1128       3.46499999      32.53700000      15.77800000
 98 33 2 0.5564        5.07200000      31.81899999      15.90300000
 99 33 2 0.5564        4.05500001      34.25699999      15.28400000
 100 34 1 -1.1128       4.21500000      29.15299999      20.31700001
 101 34 2 0.5564        3.65799999      30.17600000      18.84200000
 102 34 2 0.5564        4.95899999      30.29100000      21.44900001
 103 35 1 -1.1128       1.12600000      31.33300000      28.76800001
 104 35 2 0.5564        2.39500000      31.12399999      29.92500000
 105 35 2 0.5564        0.76800001      33.09199999      28.89799999
 106 36 1 -1.1128       4.88100000      32.61600000      32.30200000
 107 36 2 0.5564        6.58800000      32.91100000      31.72500001
 108 36 2 0.5564        4.48599999      34.03700001      33.24900001
 109 37 1 -1.1128       8.96200001       5.55600000       0.15100000
 110 37 2 0.5564        9.65200000       6.99100001       0.85899999
 111 37 2 0.5564        9.17300001       4.47700000       1.64500000
 112 38 1 -1.1128       1.83300001       3.51799999       5.67900001
 113 38 2 0.5564        2.88900000       2.73100000       6.78800000
 114 38 2 0.5564        2.78900000       4.18700000       4.14700000
 115 39 1 -1.1128      10.51000001      34.72599999      13.07300001
 116 39 2 0.5564       11.91999999      34.11800000      11.91900001
 117 39 2 0.5564       11.29500001      34.96800000      14.74100000
 118 40 1 -1.1128       7.21200000       0.04199999      22.45399999
 119 40 2 0.5564        6.92400000       0.47000000      24.17200000
 120 40 2 0.5564        8.31900000       1.22799999      21.65300000
 121 41 1 -1.1128       6.36500000       2.01000000      27.54400000
 122 41 2 0.5564        5.95400000       3.58500000      26.85199999
 123 41 2 0.5564        7.75800001       2.54900000      28.69600000
 124 42 1 -1.1128      10.83300001       3.14000000      30.78699999
 125 42 2 0.5564       12.69700001       2.97500000      30.86700000
 126 42 2 0.5564       10.38899999       3.70000001      32.40399999
 127 43 1 -1.1128       8.68400000       9.34200001       3.91200001
 128 43 2 0.5564        6.98500000       9.25600001       4.77299999
 129 43 2 0.5564        8.68400000      10.80899999       3.01100000
 130 44 1 -1.1128       4.87299999       9.91900001       7.70700000
 131 44 2 0.5564        3.69800000       9.77100000       6.19400000
 132 44 2 0.5564        5.04700000      11.96100000       7.62400000
 133 45 1 -1.1128      10.03099999       5.01800000       9.69900000
 134 45 2 0.5564        9.67500001       3.38199999      10.34000000
 135 45 2 0.5564        9.13200000       5.98700001      10.82500000
 136 46 1 -1.1128      11.24599999       3.91800000      21.92900000
 137 46 2 0.5564       12.61400001       2.77000000      22.34100000
 138 46 2 0.5564       12.07300001       5.68600001      21.49699999
 139 47 1 -1.1128       6.82500000       7.16400000      25.70799999
 140 47 2 0.5564        8.03600000       8.37400001      25.98000001
 141 47 2 0.5564        5.20600001       7.90000000      25.89099999
 142 48 1 -1.1128      10.17099999      12.81100001       0.29500001
 143 48 2 0.5564       10.03300000      12.81800000      -1.60900000
 144 48 2 0.5564        9.87999999      14.49200001       0.48000000
 145 49 1 -1.1128       8.19000000      17.40200000       1.25299999
 146 49 2 0.5564        9.47199999      18.53100000       1.25299999
 147 49 2 0.5564        6.35100000      17.81700000       1.56800001
 148 50 1 -1.1128      11.23300000      16.18800001       8.29900001
 149 50 2 0.5564       10.29100000      17.68900000       8.16600001
 150 50 2 0.5564       12.76800001      17.12300001       8.73299999
 151 51 1 -1.1128       6.38599999       8.00199999      12.84600000
 152 51 2 0.5564        7.70099999       8.89600000      13.65500000
 153 51 2 0.5564        5.59100000       8.87699999      11.51900000
 154 52 1 -1.1128       8.18400001      10.41900000      18.84799999
 155 52 2 0.5564        9.49800000       9.43400000      19.90500001
 156 52 2 0.5564        6.88200000       9.02699999      18.94800001
 157 53 1 -1.1128      10.80600000      14.43100000      21.32799999
 158 53 2 0.5564        9.17700001      13.53100000      20.67000000
 159 53 2 0.5564       11.34400000      15.69600000      20.44800000
 160 54 1 -1.1128       9.23700000      13.92800000      30.34100000
 161 54 2 0.5564       10.77900001      14.83900000      30.52199999
 162 54 2 0.5564        9.96500000      13.19199999      28.89900000
 163 55 1 -1.1128      10.91800000      21.70700000       1.86400000
 164 55 2 0.5564       10.28000000      23.44900001       2.27900000
 165 55 2 0.5564       12.70799999      21.45600000       1.74900000
 166 56 1 -1.1128       9.35300001      16.12500000      13.92699999
 167 56 2 0.5564        9.93799999      17.59399999      14.61800001
 168 56 2 0.5564        9.51799999      16.36000001      12.24400000
 169 57 1 -1.1128      10.37099999      11.10700000      14.26800000
 170 57 2 0.5564        9.64399999      10.40600001      15.85899999
 171 57 2 0.5564        9.43400000      12.52300000      14.11699999
 172 58 1 -1.1128       3.35100000      22.76899999      20.19599999
 173 58 2 0.5564        2.05500001      23.68600001      21.50300001
 174 58 2 0.5564        2.45200000      21.40100000      19.41300000
 175 59 1 -1.1128       6.83600000      21.32900000      23.19899999
 176 59 2 0.5564        8.24900001      20.84799999      22.32000001
 177 59 2 0.5564        5.66800001      21.84099999      21.88600000
 178 60 1 -1.1128       4.60399999      15.64900000      30.04300000
 179 60 2 0.5564        6.45300001      15.21699999      30.20700000
 180 60 2 0.5564        3.82200001      14.76199999      31.56200000
 181 61 1 -1.1128       7.12500000      19.97600001       9.42100001
 182 61 2 0.5564        5.91800000      20.45300001      10.72999999
 183 61 2 0.5564        8.09899999      21.49600001       9.49100000
 184 62 1 -1.1128       9.06299999      25.91200001      13.18600000
 185 62 2 0.5564       10.34999999      26.57199999      12.36700001
 186 62 2 0.5564        9.67999999      24.36700001      13.69700001
 187 63 1 -1.1128       8.02200000      22.34299999      17.04199999
 188 63 2 0.5564        9.14400000      23.36700001      18.07399999
 189 63 2 0.5564        6.56200000      23.46200000      16.85199999
 190 64 1 -1.1128      10.76199999      26.28499999      19.96299999
 191 64 2 0.5564       11.03600000      27.96599999      20.53800000
 192 64 2 0.5564       11.07800000      25.40100000      21.45600000
 193 65 1 -1.1128       9.15800000      22.90199999      28.39100000
 194 65 2 0.5564        8.21900000      23.52800001      27.08499999
 195 65 2 0.5564        8.08900000      21.76000000      29.50900000
 196 66 1 -1.1128       6.21900000      20.15800000      31.92100000
 197 66 2 0.5564        5.63500000      18.51099999      31.16100000
 198 66 2 0.5564        7.53000000      19.62400000      33.07100000
 199 67 1 -1.1128      11.19100001      31.50900000       2.61700000
 200 67 2 0.5564       10.46000001      32.21399999       4.10800000
 201 67 2 0.5564       13.17600000      31.75099999       2.57700000
 202 68 1 -1.1128       4.74799999       0.05500001       8.60500000
 203 68 2 0.5564        5.38000000       0.51700000      10.18300000
 204 68 2 0.5564        6.05000000      -0.30600001       7.48000000
 205 69 1 -1.1128       8.69500000      30.80899999      15.73100000
 206 69 2 0.5564        9.18899999      32.10300000      14.49500000
 207 69 2 0.5564        8.44699999      29.06900000      14.86800000
 208 70 1 -1.1128      10.12799999      31.40200000      20.76599999
 209 70 2 0.5564        9.45600000      30.90500001      19.15500000
 210 70 2 0.5564        9.01999999      32.73100000      21.41500000
 211 71 1 -1.1128      12.23800001      30.16200000      25.83699999
 212 71 2 0.5564       11.41799999      30.90800001      27.10999999
 213 71 2 0.5564       12.39600001      31.33100001      24.67800000
 214 72 1 -1.1128      10.39500000      32.53700000      30.62400000
 215 72 2 0.5564       11.04199999      34.33899999      30.75099999
 216 72 2 0.5564       11.37800001      31.48599999      31.53800000
 217 73 1 -1.1128      10.43800000       3.62599999       5.08700001
 218 73 2 0.5564       12.43500001       4.08200000       5.13600000
 219 73 2 0.5564        9.82200001       4.28400000       6.68100000
 220 74 1 -1.1128      14.76199999       3.40100000      13.77599999
 221 74 2 0.5564       16.51799999       3.82400000      13.37600000
 222 74 2 0.5564       13.75200000       4.75700000      12.96400000
 223 75 1 -1.1128      12.38199999       1.01200001      17.64300001
 224 75 2 0.5564       13.34599999       1.99700000      16.44400000
 225 75 2 0.5564       11.93100000       2.13300000      18.99800001
 226 76 1 -1.1128      15.27799999       1.29300000      24.55900000
 227 76 2 0.5564       16.07100000       0.94600000      26.36500000
 228 76 2 0.5564       15.79399999       0.19899999      23.49900000
 229 77 1 -1.1128      22.22600000      31.62700000      24.71199999
 230 77 2 0.5564       23.33800001      32.59500000      23.87600001
 231 77 2 0.5564       22.16100000      30.05300000      24.13200000
 232 78 1 -1.1128      15.63999999       1.84700001      32.71700000
 233 78 2 0.5564       17.48800000       2.47300000      31.87400000
 234 78 2 0.5564       16.40300001       0.86900001      34.26700001
 235 79 1 -1.1128      14.85800001      10.19899999       2.75400001
 236 79 2 0.5564       13.36000001      10.71199999       2.28199999
 237 79 2 0.5564       14.56000000       9.31600000       4.55900000
 238 80 1 -1.1128      15.71700000       8.46900000      10.73900000
 239 80 2 0.5564       17.32300000       9.58100000      10.87500000
 240 80 2 0.5564       14.57400000       9.63100000      10.22099999
 241 81 1 -1.1128      15.24800000      10.39800000      16.52500001
 242 81 2 0.5564       16.32400001       9.18100001      16.14899999
 243 81 2 0.5564       14.17200000      10.48800000      15.09800001
 244 82 1 -1.1128      13.22600000       8.43800000      20.80100001
 245 82 2 0.5564       14.04300000       8.99600000      19.29500001
 246 82 2 0.5564       14.66100001       7.80200000      22.09300000
 247 83 1 -1.1128      10.17300001      10.96100000      25.87500000
 248 83 2 0.5564       11.47700000      10.22300000      26.94000000
 249 83 2 0.5564       11.26900000      10.73800000      24.34299999
 250 84 1 -1.1128      12.79200000       7.73699999      29.17300001
 251 84 2 0.5564       12.19899999       6.03799999      29.47499999
 252 84 2 0.5564       14.42700000       7.44999999      29.61700000
 253 85 1 -1.1128      15.18000000      19.49800000       3.57800000
 254 85 2 0.5564       14.88300001      17.59600001       4.08000001
 255 85 2 0.5564       16.75400001      19.57899999       2.62599999
 256 86 1 -1.1128      12.51700000      11.09300000       7.70099999
 257 86 2 0.5564       12.22400001      12.77800000       7.55500000
 258 86 2 0.5564       11.15000000      10.39299999       7.05700000
 259 87 1 -1.1128      16.26600000      16.27099999      10.75800001
 260 87 2 0.5564       16.50700001      15.79500000      12.76800001
 261 87 2 0.5564       17.72500001      16.97699999      10.29200001
 262 88 1 -1.1128      14.06900000      18.39900001      18.89700000
 263 88 2 0.5564       15.51300000      17.52300000      18.15500000
 264 88 2 0.5564       14.95800001      18.70900000      20.67300000
 265 89 1 -1.1128      14.09899999      15.48000000      25.51000001
 266 89 2 0.5564       13.69800000      16.87200001      26.93799999
 267 89 2 0.5564       12.56700000      15.37900000      24.44400000
 268 90 1 -1.1128      13.30900000      17.57400000      30.29200001
 269 90 2 0.5564       14.93700001      16.93399999      30.81000000
 270 90 2 0.5564       13.96900001      19.49400000      30.01200001
 271 91 1 -1.1128      18.37099999      23.25699999       0.92500000
 272 91 2 0.5564       19.47899999      23.48000000       2.32099999
 273 91 2 0.5564       19.08700001      24.32499999      -0.36900000
 274 92 1 -1.1128      12.10000000      21.72999999      11.35500000
 275 92 2 0.5564       13.14100001      22.28700000      12.74300001
 276 92 2 0.5564       13.46700001      22.23600000      10.24400000
 277 93 1 -1.1128      12.16300001      23.29000000      23.59699999
 278 93 2 0.5564       11.32400001      22.73600001      24.94900000
 279 93 2 0.5564       13.88200000      22.87200001      23.84000001
 280 94 1 -1.1128      20.17300001      26.76100001      22.62800000
 281 94 2 0.5564       20.20600001      26.53200001      20.79200000
 282 94 2 0.5564       21.55600000      25.74200000      23.38899999
 283 95 1 -1.1128      16.70099999      21.16500000      22.60500000
 284 95 2 0.5564       18.02800000      20.68600001      23.84799999
 285 95 2 0.5564       17.10400000      22.86599999      21.94900000
 286 96 1 -1.1128      11.39100000      26.46099999      33.70499999
 287 96 2 0.5564        9.84099999      27.19199999      34.04800001
 288 96 2 0.5564       11.77599999      25.53999999      35.24300000
 289 97 1 -1.1128       9.89799999      25.98900000       4.55300001
 290 97 2 0.5564        8.90199999      26.13099999       6.03900000
 291 97 2 0.5564       10.28700000      27.80600000       4.37600000
 292 98 1 -1.1128      14.30800000      26.96000000      10.87699999
 293 98 2 0.5564       15.30200000      27.40500000      12.17300001
 294 98 2 0.5564       15.46300000      26.15100000       9.63299999
 295 99 1 -1.1128      13.43300000      22.96000000      16.90400000
 296 99 2 0.5564       13.40900000      24.13099999      18.13200000
 297 99 2 0.5564       13.62400000      21.19100001      17.52000000
 298 100 1 -1.1128      16.40900000      26.76800001      26.87500000
 299 100 2 0.5564       17.58999999      26.98700001      25.43100000
 300 100 2 0.5564       14.75099999      27.70300000      26.23000000
 301 101 1 -1.1128      14.40500000      22.73299999      29.89200000
 302 101 2 0.5564       15.42300000      23.07900000      28.49400000
 303 101 2 0.5564       12.82600001      23.25900000      29.41600000
 304 102 1 -1.1128       6.90500001      29.40800000       0.74900000
 305 102 2 0.5564        8.42800001      30.48300000       1.56700000
 306 102 2 0.5564        6.35300001      30.81400000      -0.44400000
 307 103 1 -1.1128       9.18899999      34.15900001       6.50900000
 308 103 2 0.5564       10.19800000      34.19300000       8.00199999
 309 103 2 0.5564        9.89000001      35.69200000       5.78500000
 310 104 1 -1.1128      14.25600001      32.31600000       9.36900000
 311 104 2 0.5564       15.73299999      32.86700000       9.48599999
 312 104 2 0.5564       14.75400001      30.67000000      10.09000000
 313 105 1 -1.1128      14.71400000      30.84099999      16.51600000
 314 105 2 0.5564       13.74799999      29.55099999      17.27900000
 315 105 2 0.5564       13.21800000      31.93300001      16.61400001
 316 106 1 -1.1128      18.40900000      33.64100000      20.61100001
 317 106 2 0.5564       19.60099999      32.27400001      21.11500000
 318 106 2 0.5564       17.36000001      32.65500000      19.51799999
 319 107 1 -1.1128      16.06200001      28.63800000      32.20700000
 320 107 2 0.5564       14.64800000      27.95800001      33.25299999
 321 107 2 0.5564       15.75200000      28.01400000      30.52199999
 322 108 1 -1.1128      16.20000000      30.89499999       1.47300000
 323 108 2 0.5564       16.62599999      29.96800000      -0.13000001
 324 108 2 0.5564       17.16699999      29.83300001       2.92699999
 325 109 1 -1.1128      20.27799999       3.52899999       6.04800001
 326 109 2 0.5564       20.97699999       3.61100001       4.57500001
 327 109 2 0.5564       21.31200000       4.51300000       7.25100000
 328 110 1 -1.1128      23.07900000       5.77800000      10.40800000
 329 110 2 0.5564       24.65000001       6.25900000      10.83800000
 330 110 2 0.5564       22.34200001       7.60900000      10.17799999
 331 111 1 -1.1128      19.58100000       2.03099999      12.10999999
 332 111 2 0.5564       19.03900000       1.08200000      10.44000000
 333 111 2 0.5564       21.14100001       2.99100001      11.85100001
 334 112 1 -1.1128      22.00500001       3.22300000      23.17799999
 335 112 2 0.5564       21.42899999       4.09000000      24.55399999
 336 112 2 0.5564       20.65400001       1.79099999      22.71100001
 337 113 1 -1.1128      16.63000000       6.42200000      23.79200000
 338 113 2 0.5564       16.21900000       4.80400001      24.40600001
 339 113 2 0.5564       17.06600001       7.12799999      25.28199999
 340 114 1 -1.1128      21.67599999       5.56400001      28.15800000
 341 114 2 0.5564       20.65799999       6.71700000      29.18499999
 342 114 2 0.5564       23.41300000       5.82800000      28.99600000
 343 115 1 -1.1128      15.25699999       5.26500000       5.62599999
 344 115 2 0.5564       16.91400000       4.51900000       5.48999999
 345 115 2 0.5564       15.14400000       6.15000000       6.97200000
 346 116 1 -1.1128      20.13700000      11.08200000      10.43700000
 347 116 2 0.5564       20.02100000      10.94700000       8.73299999
 348 116 2 0.5564       21.02500000      12.55500000      10.85300000
 349 117 1 -1.1128      23.08900000      14.62700000      12.43700000
 350 117 2 0.5564       24.71600000      15.25400000      12.73600001
 351 117 2 0.5564       23.28400000      13.22799999      13.65300000
 352 118 1 -1.1128      24.08300000      12.64900000      22.56600000
 353 118 2 0.5564       22.39700000      12.66300000      23.04199999
 354 118 2 0.5564       24.90100001      13.85100001      23.56499999
 355 119 1 -1.1128      17.86500001       7.90899999      30.03600000
 356 119 2 0.5564       17.50900000       8.04499999      31.98200000
 357 119 2 0.5564       18.07800000       9.58200001      29.31799999
 358 120 1 -1.1128      18.82400000       8.48599999       0.10400000
 359 120 2 0.5564       19.99700000      10.19100001      -0.05700000
 360 120 2 0.5564       17.07700001       8.99800001       0.77900001
 361 121 1 -1.1128      20.12200000       9.14300000       5.34299999
 362 121 2 0.5564       19.37300000       8.81899999       3.82100000
 363 121 2 0.5564       21.99800001       8.77599999       5.12799999
 364 122 1 -1.1128      16.41300000      14.45900000       5.85499999
 365 122 2 0.5564       15.53599999      13.00700000       5.23899999
 366 122 2 0.5564       16.00599999      14.72500001       7.73699999
 367 123 1 -1.1128      17.56099999      15.06600001      15.65400001
 368 123 2 0.5564       17.57500001      13.39800000      16.05500001
 369 123 2 0.5564       18.97800000      15.82800000      16.39999999
 370 124 1 -1.1128      26.37400001      17.04700000      24.81700000
 371 124 2 0.5564       27.98300000      17.09800001      25.63200001
 372 124 2 0.5564       25.62900001      18.75099999      24.91900001
 373 125 1 -1.1128      19.78400000      12.96000000      28.70600000
 374 125 2 0.5564       21.66199999      13.05500001      28.87100000
 375 125 2 0.5564       19.54500000      14.06999999      27.14300000
 376 126 1 -1.1128      17.89099999      16.73299999      32.49900000
 377 126 2 0.5564       18.32700000      15.24000000      31.27700001
 378 126 2 0.5564       18.63299999      18.33500001      31.69300001
 379 127 1 -1.1128      23.73299999      23.02399999       1.66300000
 380 127 2 0.5564       24.80000000      24.05199999       2.77599999
 381 127 2 0.5564       24.69300001      22.61800001       0.19800000
 382 128 1 -1.1128      20.78900000      18.44000000       9.44299999
 383 128 2 0.5564       20.76599999      17.25699999       7.88100000
 384 128 2 0.5564       21.89600000      17.34500000      10.38500001

Bonds

 1 1 1 2
 2 1 1 3
 3 1 4 5
 4 1 4 6
 5 1 7 8
 6 1 7 9
 7 1 10 11
 8 1 10 12
 9 1 13 14
 10 1 13 15
 11 1 16 17
 12 1 16 18
 13 1 19 20
 14 1 19 21
 15 1 22 23
 16 1 22 24
 17 1 25 26
 18 1 25 27
 19 1 28 29
 20 1 28 30
 21 1 31 32
 22 1 31 33
 23 1 34 35
 24 1 34 36
 25 1 37 38
 26 1 37 39
 27 1 40 41
 28 1 40 42
 29 1 43 44
 30 1 43 45
 31 1 46 47
 32 1 46 48
 33 1 49 50
 34 1 49 51
 35 1 52 53
 36 1 52 54
 37 1 55 56
 38 1 55 57
 39 1 58 59
 40 1 58 60
 41 1 61 62
 42 1 61 63
 43 1 64 65
 44 1 64 66
 45 1 67 68
 46 1 67 69
 47 1 70 71
 48 1 70 72
 49 1 73 74
 50 1 73 75
 51 1 76 77
 52 1 76 78
 53 1 79 80
 54 1 79 81
 55 1 82 83
 56 1 82 84
 57 1 85 86
 58 1 85 87
 59 1 88 89
 60 1 88 90
 61 1 91 92
 62 1 91 93
 63 1 94 95
 64 1 94 96
 65 1 97 98
 66 1 97 99
 67 1 100 101
 68 1 100 102
 69 1 103 104
 70 1 103 105
 71 1 106 107
 72 1 106 108
 73 1 109 110
 74 1 109 111
 75 1 112 113
 76 1 112 114
 77 1 115 116
 78 1 115 117
 79 1 118 119
 80 1 118 120
 81 1 121 122
 82 1 121 123
 83 1 124 125
 84 1 124 126
 85 1 127 128
 86 1 127 129
 87 1 130 131
 88 1 130 132
 89 1 133 134
 90 1 133 135
 91 1 136 137
 92 1 136 138
 93 1 139 140
 94 1 139 141
 95 1 142 143
 96 1 142 144
 97 1 145 146
 98 1 145 147
 99 1 148 149
 100 1 148 150
 101 1 151 152
 102 1 151 153
 103 1 154 155
 104 1 154 156
 105 1 157 158
 106 1 157 159
 107 1 160 161
 108 1 160 162
 109 1 163 164
 110 1 163 165
 111 1 166 167
 112 1 166 168
 113 1 169 170
 114 1 169 171
 115 1 172 173
 116 1 172 174
 117 1 175 176
 118 1 175 177
 119 1 178 179
 120 1 178 180
 121 1 181 182
 122 1 181 183
 123 1 184 185
 124 1 184 186
 125 1 187 188
 126 1 187 189
 127 1 190 191
 128 1 190 192
 129 1 193 194
 130 1 193 195
 131 1 196 197
 132 1 196 198
 133 1 199 200
 134 1 199 201
 135 1 202 203
 136 1 202 204
 137 1 205 206
 138 1 205 207
 139 1 208 209
 140 1 208 210
 141 1 211 212
 142 1 211 213
 143 1 214 215
 144 1 214 216
 145 1 217 218
 146 1 217 219
 147 1 220 221
 148 1 220 222
 149 1 223 224
 150 1 223 225
 151 1 226 227
 152 1 226 228
 153 1 229 230
 154 1 229 231
 155 1 232 233
 156 1 232 234
 157 1 235 236
 158 1 235 237
 159 1 238 239
 160 1 238 240
 161 1 241 242
 162 1 241 243
 163 1 244 245
 164 1 244 246
 165 1 247 248
 166 1 247 249
 167 1 250 251
 168 1 250 252
 169 1 253 254
 170 1 253 255
 171 1 256 257
 172 1 256 258
 173 1 259 260
 174 1 259 261
 175 1 262 263
 176 1 262 264
 177 1 265 266
 178 1 265 267
 179 1 268 269
 180 1 268 270
 181 1 271 272
 182 1 271 273
 183 1 274 275
 184 1 274 276
 185 1 277 278
 186 1 277 279
 187 1 280 281
 188 1 280 282
 189 1 283 284
 190 1 283 285
 191 1 286 287
 192 1 286 288
 193 1 289 290
 194 1 289 291
 195 1 292 293
 196 1 292 294
 197 1 295 296
 198 1 295 297
 199 1 298 299
 200 1 298 300
 201 1 301 302
 202 1 301 303
 203 1 304 305
 204 1 304 306
 205 1 307 308
 206 1 307 309
 207 1 310 311
 208 1 310 312
 209 1 313 314
 210 1 313 315
 211 1 316 317
 212 1 316 318
 213 1 319 320
 214 1 319 321
 215 1 322 323
 216 1 322 324
 217 1 325 326
 218 1 325 327
 219 1 328 329
 220 1 328 330
 221 1 331 332
 222 1 331 333
 223 1 334 335
 224 1 334 336
 225 1 337 338