7
# CELL(abcABC):   13.38377    13.38377    13.38377    90.00000    90.00000    90.00000  Traj: positions{angstrom} Step:           0  Bead:      14 
       O  5.40450e-01 -9.74850e-01 -2.16580e-01
       O  2.92484e+00 -8.39252e-01  1.52397e-01
       H  1.83860e-01 -1.25804e+00 -1.07875e+00
       H  1.74329e+00 -9.09278e-01 -1.00395e-01
       H  3.29707e+00 -1.59324e+00  6.47253e-01
       H  3.53033e+00 -6.08138e-01 -5.76078e-01
       H  4.23316e-02 -1.94860e-01  9.22810e-02
7
# CELL(abcABC):   13.38377    13.38377    13.38377    90.00000    90.00000    90.00000  Traj: positions{angstrom} Step:           2  Bead:      14 
       O  5.40427e-01 -9.74474e-01 -2.16820e-01
       O  2.92485e+00 -8.39656e-01  1.52537e-01
       H  1.83481e-01 -1.25565e+00 -1.07873e+00
       H  1.74315e+00 -9.08921e-01 -9.89171e-02
       H  3.29998e+00 -1.58755e+00  6.47076e-01
       H  3.52951e+00 -6.07594e-01 -5.77845e-01
       H  4.34092e-02 -1.92379e-01  9.45609e-02
