7
# CELL(abcABC):   13.38377    13.38377    13.38377    90.00000    90.00000    90.00000  Traj: positions{angstrom} Step:           0  Bead:       2 
       O  5.40450e-01 -9.74850e-01 -2.16580e-01
       O  2.92484e+00 -8.39252e-01  1.52397e-01
       H  1.83860e-01 -1.25804e+00 -1.07875e+00
       H  1.74329e+00 -9.09278e-01 -1.00395e-01
       H  3.29707e+00 -1.59324e+00  6.47253e-01
       H  3.53033e+00 -6.08138e-01 -5.76078e-01
       H  4.23316e-02 -1.94860e-01  9.22810e-02
7
# CELL(abcABC):   13.38377    13.38377    13.38377    90.00000    90.00000    90.00000  Traj: positions{angstrom} Step:           2  Bead:       2 
       O  5.40381e-01 -9.73937e-01 -2.15766e-01
       O  2.92450e+00 -8.39174e-01  1.52206e-01
       H  1.86955e-01 -1.25892e+00 -1.07941e+00
       H  1.74473e+00 -9.10087e-01 -9.91457e-02
       H  3.29584e+00 -1.59005e+00  6.45307e-01
       H  3.53259e+00 -6.06644e-01 -5.79194e-01
       H  4.09162e-02 -1.94669e-01  9.56058e-02
