7
# CELL(abcABC):   13.38377    13.38377    13.38377    90.00000    90.00000    90.00000  Traj: positions{angstrom} Step:           0  Bead:      15 
       O  5.40450e-01 -9.74850e-01 -2.16580e-01
       O  2.92484e+00 -8.39252e-01  1.52397e-01
       H  1.83860e-01 -1.25804e+00 -1.07875e+00
       H  1.74329e+00 -9.09278e-01 -1.00395e-01
       H  3.29707e+00 -1.59324e+00  6.47253e-01
       H  3.53033e+00 -6.08138e-01 -5.76078e-01
       H  4.23316e-02 -1.94860e-01  9.22810e-02
7
# CELL(abcABC):   13.38377    13.38377    13.38377    90.00000    90.00000    90.00000  Traj: positions{angstrom} Step:           2  Bead:      15 
       O  5.40663e-01 -9.75253e-01 -2.16956e-01
       O  2.92429e+00 -8.38886e-01  1.52485e-01
       H  1.82196e-01 -1.25467e+00 -1.07967e+00
       H  1.74247e+00 -9.09745e-01 -9.82239e-02
       H  3.29783e+00 -1.59134e+00  6.46278e-01
       H  3.52763e+00 -6.09316e-01 -5.75521e-01
       H  3.92274e-02 -1.96012e-01  9.15921e-02
