7
# CELL(abcABC):   13.38377    13.38377    13.38377    90.00000    90.00000    90.00000  Traj: positions{angstrom} Step:           0  Bead:       1 
       O  5.40450e-01 -9.74850e-01 -2.16580e-01
       O  2.92484e+00 -8.39252e-01  1.52397e-01
       H  1.83860e-01 -1.25804e+00 -1.07875e+00
       H  1.74329e+00 -9.09278e-01 -1.00395e-01
       H  3.29707e+00 -1.59324e+00  6.47253e-01
       H  3.53033e+00 -6.08138e-01 -5.76078e-01
       H  4.23316e-02 -1.94860e-01  9.22810e-02
7
# CELL(abcABC):   13.38377    13.38377    13.38377    90.00000    90.00000    90.00000  Traj: positions{angstrom} Step:           2  Bead:       1 
       O  5.40284e-01 -9.75103e-01 -2.16230e-01
       O  2.92438e+00 -8.38963e-01  1.52237e-01
       H  1.79983e-01 -1.25957e+00 -1.07903e+00
       H  1.74214e+00 -9.09450e-01 -1.00177e-01
       H  3.29837e+00 -1.59772e+00  6.42593e-01
       H  3.53289e+00 -6.09741e-01 -5.73472e-01
       H  4.57276e-02 -1.92561e-01  9.17414e-02
