7
# CELL(abcABC):   13.38377    13.38377    13.38377    90.00000    90.00000    90.00000  Traj: positions{angstrom} Step:           0  Bead:      10 
       O  5.40450e-01 -9.74850e-01 -2.16580e-01
       O  2.92484e+00 -8.39252e-01  1.52397e-01
       H  1.83860e-01 -1.25804e+00 -1.07875e+00
       H  1.74329e+00 -9.09278e-01 -1.00395e-01
       H  3.29707e+00 -1.59324e+00  6.47253e-01
       H  3.53033e+00 -6.08138e-01 -5.76078e-01
       H  4.23316e-02 -1.94860e-01  9.22810e-02
7
# CELL(abcABC):   13.38377    13.38377    13.38377    90.00000    90.00000    90.00000  Traj: positions{angstrom} Step:           2  Bead:      10 
       O  5.41082e-01 -9.75334e-01 -2.17079e-01
       O  2.92450e+00 -8.38187e-01  1.52569e-01
       H  1.84737e-01 -1.25688e+00 -1.07748e+00
       H  1.74397e+00 -9.10280e-01 -1.01659e-01
       H  3.29545e+00 -1.59340e+00  6.46125e-01
       H  3.53069e+00 -6.09215e-01 -5.75591e-01
       H  4.19943e-02 -1.91723e-01  8.81145e-02
