7
# CELL(abcABC):   13.38377    13.38377    13.38377    90.00000    90.00000    90.00000  Traj: positions{angstrom} Step:           0  Bead:      12 
       O  5.40450e-01 -9.74850e-01 -2.16580e-01
       O  2.92484e+00 -8.39252e-01  1.52397e-01
       H  1.83860e-01 -1.25804e+00 -1.07875e+00
       H  1.74329e+00 -9.09278e-01 -1.00395e-01
       H  3.29707e+00 -1.59324e+00  6.47253e-01
       H  3.53033e+00 -6.08138e-01 -5.76078e-01
       H  4.23316e-02 -1.94860e-01  9.22810e-02
7
# CELL(abcABC):   13.38377    13.38377    13.38377    90.00000    90.00000    90.00000  Traj: positions{angstrom} Step:           2  Bead:      12 
       O  5.40599e-01 -9.74710e-01 -2.15706e-01
       O  2.92495e+00 -8.39634e-01  1.52278e-01
       H  1.87850e-01 -1.26082e+00 -1.07747e+00
       H  1.74385e+00 -9.09008e-01 -1.01886e-01
       H  3.29772e+00 -1.59388e+00  6.46349e-01
       H  3.53215e+00 -6.07238e-01 -5.79314e-01
       H  4.33013e-02 -1.93214e-01  9.25158e-02
