7
# CELL(abcABC):   13.38377    13.38377    13.38377    90.00000    90.00000    90.00000  Traj: positions{angstrom} Step:           0  Bead:       5 
       O  5.40450e-01 -9.74850e-01 -2.16580e-01
       O  2.92484e+00 -8.39252e-01  1.52397e-01
       H  1.83860e-01 -1.25804e+00 -1.07875e+00
       H  1.74329e+00 -9.09278e-01 -1.00395e-01
       H  3.29707e+00 -1.59324e+00  6.47253e-01
       H  3.53033e+00 -6.08138e-01 -5.76078e-01
       H  4.23316e-02 -1.94860e-01  9.22810e-02
7
# CELL(abcABC):   13.38377    13.38377    13.38377    90.00000    90.00000    90.00000  Traj: positions{angstrom} Step:           2  Bead:       5 
       O  5.40590e-01 -9.74759e-01 -2.16409e-01
       O  2.92474e+00 -8.39905e-01  1.51389e-01
       H  1.82589e-01 -1.25224e+00 -1.07858e+00
       H  1.74146e+00 -9.09611e-01 -1.00096e-01
       H  3.29708e+00 -1.59323e+00  6.43607e-01
       H  3.53140e+00 -6.04703e-01 -5.78040e-01
       H  4.32858e-02 -1.92228e-01  9.05025e-02
