7
# CELL(abcABC):   13.38377    13.38377    13.38377    90.00000    90.00000    90.00000  Traj: positions{angstrom} Step:           0  Bead:       3 
       O  5.40450e-01 -9.74850e-01 -2.16580e-01
       O  2.92484e+00 -8.39252e-01  1.52397e-01
       H  1.83860e-01 -1.25804e+00 -1.07875e+00
       H  1.74329e+00 -9.09278e-01 -1.00395e-01
       H  3.29707e+00 -1.59324e+00  6.47253e-01
       H  3.53033e+00 -6.08138e-01 -5.76078e-01
       H  4.23316e-02 -1.94860e-01  9.22810e-02
7
# CELL(abcABC):   13.38377    13.38377    13.38377    90.00000    90.00000    90.00000  Traj: positions{angstrom} Step:           2  Bead:       3 
       O  5.40514e-01 -9.74098e-01 -2.16301e-01
       O  2.92422e+00 -8.39144e-01  1.52275e-01
       H  1.85717e-01 -1.25767e+00 -1.07539e+00
       H  1.74101e+00 -9.12140e-01 -9.85170e-02
       H  3.29914e+00 -1.59096e+00  6.47094e-01
       H  3.53073e+00 -6.02772e-01 -5.80038e-01
       H  4.33955e-02 -1.92381e-01  9.19423e-02
