LAMMPS (2 Jul 2015)
units		electron
atom_style	full

#pair_style	lj/cut/coul/long 17.01
pair_style      lj/cut/tip4p/long 1 2 1 1 0.278072379 17.007
bond_style      harmonic
#bond_style      class2
angle_style     harmonic
#kspace_style	pppm 0.0001
kspace_style	pppm/tip4p 0.0001

read_data	data.water_longrange
  orthogonal box = (0 0 0) to (35.233 35.233 35.233)
  1 by 1 by 1 MPI processor grid
  reading atoms ...
  648 atoms
  scanning bonds ...
  2 = max bonds/atom
  scanning angles ...
  1 = max angles/atom
  reading bonds ...
  432 bonds
  reading angles ...
  216 angles
  2 = max # of 1-2 neighbors
  1 = max # of 1-3 neighbors
  1 = max # of 1-4 neighbors
  2 = max # of special neighbors
pair_coeff  * * 0 0
pair_coeff  1  1  0.000295147 5.96946

neighbor	2.0 bin
neigh_modify delay 0 every 1 check yes

timestep	0.00025

#velocity all create 298.0 2345187

#thermo_style	multi
#thermo		1

#fix		1 all nvt temp 298.0 298.0 30.0 tchain 1
#fix 1 all nve
fix 1 all ipi rpc_long 32347 unix

#dump		1 all xyz 25 dump.xyz

run		100000000
PPPM initialization ...
  extracting TIP4P info from pair style
  G vector (1/distance) = 0.166151
  grid = 15 15 15
  stencil order = 5
  estimated absolute RMS force accuracy = 1.3906e-05
  estimated relative force accuracy = 4.96592e-05
  using double precision FFTs
  3d grid and FFT values/proc = 10648 3375
Neighbor list info ...
  1 neighbor list requests
  update every 1 steps, delay 0 steps, check yes
  master list distance cutoff = 19.5631
Memory usage per processor = 7.07206 Mbytes
Step Temp E_pair E_mol TotEng Press 
       0            0   -3.8718937            0   -3.8718937 2.5805566e+09 
ERROR: Out of range atoms - cannot compute PPPM (../pppm_tip4p.cpp:107)
