LAMMPS (2 Jul 2015)
units		electron
atom_style	full

#pair_style	lj/cut/coul/long 17.01
pair_style      lj/cut/tip4p/long 1 2 1 1 0.278072379 17.007
bond_style      harmonic
#bond_style      class2
angle_style     harmonic
#kspace_style	pppm 0.0001
kspace_style	pppm/tip4p 0.0001

read_data	data.water_longrange
  orthogonal box = (0 0 0) to (35.233 35.233 35.233)
  1 by 1 by 1 MPI processor grid
  reading atoms ...
  648 atoms
  scanning bonds ...
  2 = max bonds/atom
  scanning angles ...
  1 = max angles/atom
  reading bonds ...
  432 bonds
  reading angles ...
  216 angles
  2 = max # of 1-2 neighbors
  1 = max # of 1-3 neighbors
  1 = max # of 1-4 neighbors
  2 = max # of special neighbors
pair_coeff  * * 0 0
pair_coeff  1  1  0.000295147 5.96946

neighbor	2.0 bin
neigh_modify delay 0 every 1 check yes

timestep	0.00025

#velocity all create 298.0 2345187

thermo_style	multi
thermo		1

#fix		1 all nvt temp 298.0 298.0 30.0 tchain 1
#fix 1 all nve
fix 1 all ipi rpc_long 32347 unix

#dump		1 all xyz 25 dump.xyz

run		100000000
PPPM initialization ...
  extracting TIP4P info from pair style
  G vector (1/distance) = 0.166151
  grid = 15 15 15
  stencil order = 5
  estimated absolute RMS force accuracy = 1.3906e-05
  estimated relative force accuracy = 4.96592e-05
  using double precision FFTs
  3d grid and FFT values/proc = 10648 3375
Neighbor list info ...
  1 neighbor list requests
  update every 1 steps, delay 0 steps, check yes
  master list distance cutoff = 19.5631
Memory usage per processor = 7.07206 Mbytes
---------------- Step        0 ----- CPU =      0.0000 (sec) ----------------
TotEng   =        -3.8719 KinEng   =         0.0000 Temp     =         0.0000 
PotEng   =        -3.8719 E_bond   =         0.0000 E_angle  =         0.0000 
E_dihed  =         0.0000 E_impro  =         0.0000 E_vdwl   =         0.6219 
E_coul   =        33.0761 E_long   =       -37.5699 Press    = 2580556639.3921 
---------------- Step        1 ----- CPU =      1.0328 (sec) ----------------
TotEng   =        -3.8719 KinEng   =         0.0000 Temp     =         0.0000 
PotEng   =        -3.8719 E_bond   =         0.0000 E_angle  =         0.0000 
E_dihed  =         0.0000 E_impro  =         0.0000 E_vdwl   =         0.6219 
E_coul   =        33.0761 E_long   =       -37.5699 Press    = 2580514137.0910 
---------------- Step        2 ----- CPU =      1.0542 (sec) ----------------
TotEng   =        -3.8719 KinEng   =         0.0000 Temp     =         0.0000 
PotEng   =        -3.8719 E_bond   =         0.0000 E_angle  =         0.0000 
E_dihed  =         0.0000 E_impro  =         0.0000 E_vdwl   =         0.6219 
E_coul   =        33.0761 E_long   =       -37.5699 Press    = 2580514137.0910 
---------------- Step        3 ----- CPU =      1.0761 (sec) ----------------
TotEng   =        -3.8719 KinEng   =         0.0000 Temp     =         0.0000 
PotEng   =        -3.8719 E_bond   =         0.0000 E_angle  =         0.0000 
E_dihed  =         0.0000 E_impro  =         0.0000 E_vdwl   =         0.6219 
E_coul   =        33.0761 E_long   =       -37.5699 Press    = 2580514137.0910 
---------------- Step        4 ----- CPU =      1.0975 (sec) ----------------
TotEng   =        -3.8719 KinEng   =         0.0000 Temp     =         0.0000 
PotEng   =        -3.8719 E_bond   =         0.0000 E_angle  =         0.0000 
E_dihed  =         0.0000 E_impro  =         0.0000 E_vdwl   =         0.6219 
E_coul   =        33.0761 E_long   =       -37.5699 Press    = 2580514137.0910 
---------------- Step        5 ----- CPU =      3.8992 (sec) ----------------
TotEng   =        -3.7648 KinEng   =         0.0000 Temp     =         0.0000 
PotEng   =        -3.7648 E_bond   =         0.0000 E_angle  =         0.0000 
E_dihed  =         0.0000 E_impro  =         0.0000 E_vdwl   =         0.6256 
E_coul   =        33.1771 E_long   =       -37.5676 Press    = 2614655100.2141 
---------------- Step        6 ----- CPU =      3.9306 (sec) ----------------
TotEng   =        -3.8285 KinEng   =         0.0000 Temp     =         0.0000 
PotEng   =        -3.8285 E_bond   =         0.0000 E_angle  =         0.0000 
E_dihed  =         0.0000 E_impro  =         0.0000 E_vdwl   =         0.6181 
E_coul   =        33.1227 E_long   =       -37.5694 Press    = 2579997887.6191 
---------------- Step        7 ----- CPU =      3.9615 (sec) ----------------
TotEng   =        -3.7780 KinEng   =         0.0000 Temp     =         0.0000 
PotEng   =        -3.7780 E_bond   =         0.0000 E_angle  =         0.0000 
E_dihed  =         0.0000 E_impro  =         0.0000 E_vdwl   =         0.6251 
E_coul   =        33.1676 E_long   =       -37.5707 Press    = 2610311113.6838 
---------------- Step        8 ----- CPU =      3.9960 (sec) ----------------
TotEng   =        -3.8696 KinEng   =         0.0000 Temp     =         0.0000 
PotEng   =        -3.8696 E_bond   =         0.0000 E_angle  =         0.0000 
E_dihed  =         0.0000 E_impro  =         0.0000 E_vdwl   =         0.6177 
E_coul   =        33.0809 E_long   =       -37.5682 Press    = 2570647499.2820 
---------------- Step        9 ----- CPU =      4.2164 (sec) ----------------
TotEng   =        -3.7999 KinEng   =         0.0000 Temp     =         0.0000 
PotEng   =        -3.7999 E_bond   =         0.0000 E_angle  =         0.0000 
E_dihed  =         0.0000 E_impro  =         0.0000 E_vdwl   =         0.6178 
E_coul   =        33.1507 E_long   =       -37.5684 Press    = 2587453479.7521 
---------------- Step       10 ----- CPU =      4.2490 (sec) ----------------
TotEng   =        -3.7375 KinEng   =         0.0000 Temp     =         0.0000 
PotEng   =        -3.7375 E_bond   =         0.0000 E_angle  =         0.0000 
E_dihed  =         0.0000 E_impro  =         0.0000 E_vdwl   =         0.6185 
E_coul   =        33.2126 E_long   =       -37.5685 Press    = 2601473064.1253 
---------------- Step       11 ----- CPU =      4.2816 (sec) ----------------
TotEng   =        -3.6952 KinEng   =         0.0000 Temp     =         0.0000 
PotEng   =        -3.6952 E_bond   =         0.0000 E_angle  =         0.0000 
E_dihed  =         0.0000 E_impro  =         0.0000 E_vdwl   =         0.6289 
E_coul   =        33.2466 E_long   =       -37.5707 Press    = 2639089465.6277 
---------------- Step       12 ----- CPU =      4.3101 (sec) ----------------
TotEng   =        -3.6592 KinEng   =         0.0000 Temp     =         0.0000 
PotEng   =        -3.6592 E_bond   =         0.0000 E_angle  =         0.0000 
E_dihed  =         0.0000 E_impro  =         0.0000 E_vdwl   =         0.6310 
E_coul   =        33.2755 E_long   =       -37.5656 Press    = 2652784694.1556 
---------------- Step       13 ----- CPU =      4.5766 (sec) ----------------
TotEng   =        -3.6033 KinEng   =         0.0000 Temp     =         0.0000 
PotEng   =        -3.6033 E_bond   =         0.0000 E_angle  =         0.0000 
E_dihed  =         0.0000 E_impro  =         0.0000 E_vdwl   =         0.6342 
E_coul   =        33.3303 E_long   =       -37.5678 Press    = 2674429674.1110 
---------------- Step       14 ----- CPU =      4.6044 (sec) ----------------
TotEng   =        -3.6433 KinEng   =         0.0000 Temp     =         0.0000 
PotEng   =        -3.6433 E_bond   =         0.0000 E_angle  =         0.0000 
E_dihed  =         0.0000 E_impro  =         0.0000 E_vdwl   =         0.6198 
E_coul   =        33.3068 E_long   =       -37.5699 Press    = 2626173174.7977 
---------------- Step       15 ----- CPU =      4.6328 (sec) ----------------
TotEng   =        -3.6583 KinEng   =         0.0000 Temp     =         0.0000 
PotEng   =        -3.6583 E_bond   =         0.0000 E_angle  =         0.0000 
E_dihed  =         0.0000 E_impro  =         0.0000 E_vdwl   =         0.6295 
E_coul   =        33.2845 E_long   =       -37.5723 Press    = 2648938522.4895 
---------------- Step       16 ----- CPU =      4.6599 (sec) ----------------
TotEng   =        -3.6945 KinEng   =         0.0000 Temp     =         0.0000 
PotEng   =        -3.6945 E_bond   =         0.0000 E_angle  =         0.0000 
E_dihed  =         0.0000 E_impro  =         0.0000 E_vdwl   =         0.6207 
E_coul   =        33.2554 E_long   =       -37.5706 Press    = 2619111101.3631 
---------------- Step       17 ----- CPU =      4.9312 (sec) ----------------
TotEng   =        -3.6531 KinEng   =         0.0000 Temp     =         0.0000 
PotEng   =        -3.6531 E_bond   =         0.0000 E_angle  =         0.0000 
E_dihed  =         0.0000 E_impro  =         0.0000 E_vdwl   =         0.6225 
E_coul   =        33.2994 E_long   =       -37.5750 Press    = 2633889040.9893 
---------------- Step       18 ----- CPU =      4.9618 (sec) ----------------
TotEng   =        -3.6361 KinEng   =         0.0000 Temp     =         0.0000 
PotEng   =        -3.6361 E_bond   =         0.0000 E_angle  =         0.0000 
E_dihed  =         0.0000 E_impro  =         0.0000 E_vdwl   =         0.6182 
E_coul   =        33.3208 E_long   =       -37.5752 Press    = 2623775477.4092 
---------------- Step       19 ----- CPU =      4.9904 (sec) ----------------
TotEng   =        -3.6956 KinEng   =         0.0000 Temp     =         0.0000 
PotEng   =        -3.6956 E_bond   =         0.0000 E_angle  =         0.0000 
E_dihed  =         0.0000 E_impro  =         0.0000 E_vdwl   =         0.6262 
E_coul   =        33.2546 E_long   =       -37.5764 Press    = 2631524148.9377 
---------------- Step       20 ----- CPU =      5.0196 (sec) ----------------
TotEng   =        -3.6391 KinEng   =         0.0000 Temp     =         0.0000 
PotEng   =        -3.6391 E_bond   =         0.0000 E_angle  =         0.0000 
E_dihed  =         0.0000 E_impro  =         0.0000 E_vdwl   =         0.6327 
E_coul   =        33.3028 E_long   =       -37.5747 Press    = 2662970839.7524 
---------------- Step       21 ----- CPU =      5.3295 (sec) ----------------
TotEng   =        -3.7338 KinEng   =         0.0000 Temp     =         0.0000 
PotEng   =        -3.7338 E_bond   =         0.0000 E_angle  =         0.0000 
E_dihed  =         0.0000 E_impro  =         0.0000 E_vdwl   =         0.6250 
E_coul   =        33.2220 E_long   =       -37.5808 Press    = 2621027041.5571 
---------------- Step       22 ----- CPU =      5.3616 (sec) ----------------
TotEng   =        -3.7209 KinEng   =         0.0000 Temp     =         0.0000 
PotEng   =        -3.7209 E_bond   =         0.0000 E_angle  =         0.0000 
E_dihed  =         0.0000 E_impro  =         0.0000 E_vdwl   =         0.6117 
E_coul   =        33.2487 E_long   =       -37.5813 Press    = 2586857946.4962 
---------------- Step       23 ----- CPU =      5.3964 (sec) ----------------
TotEng   =        -3.7835 KinEng   =         0.0000 Temp     =         0.0000 
PotEng   =        -3.7835 E_bond   =         0.0000 E_angle  =         0.0000 
E_dihed  =         0.0000 E_impro  =         0.0000 E_vdwl   =         0.6189 
E_coul   =        33.1786 E_long   =       -37.5810 Press    = 2592219817.7586 
---------------- Step       24 ----- CPU =      5.4263 (sec) ----------------
TotEng   =        -3.7261 KinEng   =         0.0000 Temp     =         0.0000 
PotEng   =        -3.7261 E_bond   =         0.0000 E_angle  =         0.0000 
E_dihed  =         0.0000 E_impro  =         0.0000 E_vdwl   =         0.6189 
E_coul   =        33.2358 E_long   =       -37.5808 Press    = 2607782913.4605 
---------------- Step       25 ----- CPU =      5.7086 (sec) ----------------
TotEng   =        -3.8569 KinEng   =         0.0000 Temp     =         0.0000 
PotEng   =        -3.8569 E_bond   =         0.0000 E_angle  =         0.0000 
E_dihed  =         0.0000 E_impro  =         0.0000 E_vdwl   =         0.6100 
E_coul   =        33.1166 E_long   =       -37.5835 Press    = 2554380253.0666 
---------------- Step       26 ----- CPU =      5.7334 (sec) ----------------
TotEng   =        -3.8348 KinEng   =         0.0000 Temp     =         0.0000 
PotEng   =        -3.8348 E_bond   =         0.0000 E_angle  =         0.0000 
E_dihed  =         0.0000 E_impro  =         0.0000 E_vdwl   =         0.6025 
E_coul   =        33.1463 E_long   =       -37.5837 Press    = 2536978877.4093 
---------------- Step       27 ----- CPU =      5.7602 (sec) ----------------
TotEng   =        -3.8527 KinEng   =         0.0000 Temp     =         0.0000 
PotEng   =        -3.8527 E_bond   =         0.0000 E_angle  =         0.0000 
E_dihed  =         0.0000 E_impro  =         0.0000 E_vdwl   =         0.6089 
E_coul   =        33.1201 E_long   =       -37.5818 Press    = 2550323970.2010 
---------------- Step       28 ----- CPU =      5.7852 (sec) ----------------
TotEng   =        -3.8332 KinEng   =         0.0000 Temp     =         0.0000 
PotEng   =        -3.8332 E_bond   =         0.0000 E_angle  =         0.0000 
E_dihed  =         0.0000 E_impro  =         0.0000 E_vdwl   =         0.6121 
E_coul   =        33.1361 E_long   =       -37.5814 Press    = 2564508397.9038 
---------------- Step       29 ----- CPU =      6.0478 (sec) ----------------
TotEng   =        -3.9392 KinEng   =         0.0000 Temp     =         0.0000 
PotEng   =        -3.9392 E_bond   =         0.0000 E_angle  =         0.0000 
E_dihed  =         0.0000 E_impro  =         0.0000 E_vdwl   =         0.5977 
E_coul   =        33.0433 E_long   =       -37.5802 Press    = 2502788836.7941 
---------------- Step       30 ----- CPU =      6.0733 (sec) ----------------
TotEng   =        -3.9494 KinEng   =         0.0000 Temp     =         0.0000 
PotEng   =        -3.9494 E_bond   =         0.0000 E_angle  =         0.0000 
E_dihed  =         0.0000 E_impro  =         0.0000 E_vdwl   =         0.5947 
E_coul   =        33.0404 E_long   =       -37.5845 Press    = 2490608784.9335 
---------------- Step       31 ----- CPU =      6.0998 (sec) ----------------
TotEng   =        -3.8974 KinEng   =         0.0000 Temp     =         0.0000 
PotEng   =        -3.8974 E_bond   =         0.0000 E_angle  =         0.0000 
E_dihed  =         0.0000 E_impro  =         0.0000 E_vdwl   =         0.5974 
E_coul   =        33.0836 E_long   =       -37.5785 Press    = 2510270713.0609 
---------------- Step       32 ----- CPU =      6.1281 (sec) ----------------
TotEng   =        -3.9822 KinEng   =         0.0000 Temp     =         0.0000 
PotEng   =        -3.9822 E_bond   =         0.0000 E_angle  =         0.0000 
E_dihed  =         0.0000 E_impro  =         0.0000 E_vdwl   =         0.6005 
E_coul   =        32.9999 E_long   =       -37.5826 Press    = 2500814732.0333 
---------------- Step       33 ----- CPU =      6.4067 (sec) ----------------
TotEng   =        -4.0205 KinEng   =         0.0000 Temp     =         0.0000 
PotEng   =        -4.0205 E_bond   =         0.0000 E_angle  =         0.0000 
E_dihed  =         0.0000 E_impro  =         0.0000 E_vdwl   =         0.5940 
E_coul   =        32.9670 E_long   =       -37.5816 Press    = 2474794597.4451 
---------------- Step       34 ----- CPU =      6.4357 (sec) ----------------
TotEng   =        -3.9965 KinEng   =         0.0000 Temp     =         0.0000 
PotEng   =        -3.9965 E_bond   =         0.0000 E_angle  =         0.0000 
E_dihed  =         0.0000 E_impro  =         0.0000 E_vdwl   =         0.5897 
E_coul   =        32.9987 E_long   =       -37.5849 Press    = 2467440428.6940 
---------------- Step       35 ----- CPU =      6.4668 (sec) ----------------
TotEng   =        -3.9234 KinEng   =         0.0000 Temp     =         0.0000 
PotEng   =        -3.9234 E_bond   =         0.0000 E_angle  =         0.0000 
E_dihed  =         0.0000 E_impro  =         0.0000 E_vdwl   =         0.5858 
E_coul   =        33.0669 E_long   =       -37.5760 Press    = 2473938306.5734 
---------------- Step       36 ----- CPU =      6.4945 (sec) ----------------
TotEng   =        -3.9969 KinEng   =         0.0000 Temp     =         0.0000 
PotEng   =        -3.9969 E_bond   =         0.0000 E_angle  =         0.0000 
E_dihed  =         0.0000 E_impro  =         0.0000 E_vdwl   =         0.5855 
E_coul   =        32.9985 E_long   =       -37.5810 Press    = 2457913042.6694 
---------------- Step       37 ----- CPU =      6.7383 (sec) ----------------
TotEng   =        -3.9471 KinEng   =         0.0000 Temp     =         0.0000 
PotEng   =        -3.9471 E_bond   =         0.0000 E_angle  =         0.0000 
E_dihed  =         0.0000 E_impro  =         0.0000 E_vdwl   =         0.5792 
E_coul   =        33.0549 E_long   =       -37.5812 Press    = 2451974844.1766 
---------------- Step       38 ----- CPU =      6.7693 (sec) ----------------
TotEng   =        -3.9257 KinEng   =         0.0000 Temp     =         0.0000 
PotEng   =        -3.9257 E_bond   =         0.0000 E_angle  =         0.0000 
E_dihed  =         0.0000 E_impro  =         0.0000 E_vdwl   =         0.5882 
E_coul   =        33.0682 E_long   =       -37.5821 Press    = 2480153956.9709 
---------------- Step       39 ----- CPU =      6.8049 (sec) ----------------
TotEng   =        -3.9001 KinEng   =         0.0000 Temp     =         0.0000 
PotEng   =        -3.9001 E_bond   =         0.0000 E_angle  =         0.0000 
E_dihed  =         0.0000 E_impro  =         0.0000 E_vdwl   =         0.5781 
E_coul   =        33.0984 E_long   =       -37.5766 Press    = 2459438670.9460 
---------------- Step       40 ----- CPU =      6.8361 (sec) ----------------
TotEng   =        -3.9287 KinEng   =         0.0000 Temp     =         0.0000 
PotEng   =        -3.9287 E_bond   =         0.0000 E_angle  =         0.0000 
E_dihed  =         0.0000 E_impro  =         0.0000 E_vdwl   =         0.5916 
E_coul   =        33.0615 E_long   =       -37.5818 Press    = 2488917205.7194 
---------------- Step       41 ----- CPU =      7.0801 (sec) ----------------
TotEng   =        -3.8029 KinEng   =         0.0000 Temp     =         0.0000 
PotEng   =        -3.8029 E_bond   =         0.0000 E_angle  =         0.0000 
E_dihed  =         0.0000 E_impro  =         0.0000 E_vdwl   =         0.5921 
E_coul   =        33.1885 E_long   =       -37.5835 Press    = 2518855075.1584 
---------------- Step       42 ----- CPU =      7.1111 (sec) ----------------
TotEng   =        -3.8281 KinEng   =         0.0000 Temp     =         0.0000 
PotEng   =        -3.8281 E_bond   =         0.0000 E_angle  =         0.0000 
E_dihed  =         0.0000 E_impro  =         0.0000 E_vdwl   =         0.5897 
E_coul   =        33.1608 E_long   =       -37.5785 Press    = 2507143580.1956 
---------------- Step       43 ----- CPU =      7.1399 (sec) ----------------
TotEng   =        -3.8551 KinEng   =         0.0000 Temp     =         0.0000 
PotEng   =        -3.8551 E_bond   =         0.0000 E_angle  =         0.0000 
E_dihed  =         0.0000 E_impro  =         0.0000 E_vdwl   =         0.5772 
E_coul   =        33.1474 E_long   =       -37.5797 Press    = 2468237655.4350 
---------------- Step       44 ----- CPU =      7.1711 (sec) ----------------
TotEng   =        -3.8454 KinEng   =         0.0000 Temp     =         0.0000 
PotEng   =        -3.8454 E_bond   =         0.0000 E_angle  =         0.0000 
E_dihed  =         0.0000 E_impro  =         0.0000 E_vdwl   =         0.5795 
E_coul   =        33.1536 E_long   =       -37.5785 Press    = 2475353274.9891 
---------------- Step       45 ----- CPU =      7.4415 (sec) ----------------
TotEng   =        -3.7427 KinEng   =         0.0000 Temp     =         0.0000 
PotEng   =        -3.7427 E_bond   =         0.0000 E_angle  =         0.0000 
E_dihed  =         0.0000 E_impro  =         0.0000 E_vdwl   =         0.5836 
E_coul   =        33.2481 E_long   =       -37.5743 Press    = 2509014782.7167 
---------------- Step       46 ----- CPU =      7.4770 (sec) ----------------
TotEng   =        -3.7733 KinEng   =         0.0000 Temp     =         0.0000 
PotEng   =        -3.7733 E_bond   =         0.0000 E_angle  =         0.0000 
E_dihed  =         0.0000 E_impro  =         0.0000 E_vdwl   =         0.5918 
E_coul   =        33.2113 E_long   =       -37.5764 Press    = 2525498728.7967 
---------------- Step       47 ----- CPU =      7.5094 (sec) ----------------
TotEng   =        -3.8109 KinEng   =         0.0000 Temp     =         0.0000 
PotEng   =        -3.8109 E_bond   =         0.0000 E_angle  =         0.0000 
E_dihed  =         0.0000 E_impro  =         0.0000 E_vdwl   =         0.5814 
E_coul   =        33.1899 E_long   =       -37.5822 Press    = 2489468361.3981 
---------------- Step       48 ----- CPU =      7.5376 (sec) ----------------
TotEng   =        -3.7389 KinEng   =         0.0000 Temp     =         0.0000 
PotEng   =        -3.7389 E_bond   =         0.0000 E_angle  =         0.0000 
E_dihed  =         0.0000 E_impro  =         0.0000 E_vdwl   =         0.5921 
E_coul   =        33.2518 E_long   =       -37.5828 Press    = 2532818329.4315 
---------------- Step       49 ----- CPU =      7.7685 (sec) ----------------
TotEng   =        -3.7331 KinEng   =         0.0000 Temp     =         0.0000 
PotEng   =        -3.7331 E_bond   =         0.0000 E_angle  =         0.0000 
E_dihed  =         0.0000 E_impro  =         0.0000 E_vdwl   =         0.5900 
E_coul   =        33.2545 E_long   =       -37.5776 Press    = 2527991674.6014 
---------------- Step       50 ----- CPU =      7.7992 (sec) ----------------
TotEng   =        -3.7472 KinEng   =         0.0000 Temp     =         0.0000 
PotEng   =        -3.7472 E_bond   =         0.0000 E_angle  =         0.0000 
E_dihed  =         0.0000 E_impro  =         0.0000 E_vdwl   =         0.5933 
E_coul   =        33.2332 E_long   =       -37.5737 Press    = 2535958845.3653 
---------------- Step       51 ----- CPU =      7.8287 (sec) ----------------
TotEng   =        -3.7537 KinEng   =         0.0000 Temp     =         0.0000 
PotEng   =        -3.7537 E_bond   =         0.0000 E_angle  =         0.0000 
E_dihed  =         0.0000 E_impro  =         0.0000 E_vdwl   =         0.5875 
E_coul   =        33.2386 E_long   =       -37.5799 Press    = 2518878996.2328 
---------------- Step       52 ----- CPU =      7.8580 (sec) ----------------
TotEng   =        -3.6558 KinEng   =         0.0000 Temp     =         0.0000 
PotEng   =        -3.6558 E_bond   =         0.0000 E_angle  =         0.0000 
E_dihed  =         0.0000 E_impro  =         0.0000 E_vdwl   =         0.5887 
E_coul   =        33.3264 E_long   =       -37.5709 Press    = 2541712498.7820 
---------------- Step       53 ----- CPU =      8.1246 (sec) ----------------
TotEng   =        -3.6500 KinEng   =         0.0000 Temp     =         0.0000 
PotEng   =        -3.6500 E_bond   =         0.0000 E_angle  =         0.0000 
E_dihed  =         0.0000 E_impro  =         0.0000 E_vdwl   =         0.5932 
E_coul   =        33.3284 E_long   =       -37.5716 Press    = 2555579435.6032 
---------------- Step       54 ----- CPU =      8.1553 (sec) ----------------
TotEng   =        -3.7724 KinEng   =         0.0000 Temp     =         0.0000 
PotEng   =        -3.7724 E_bond   =         0.0000 E_angle  =         0.0000 
E_dihed  =         0.0000 E_impro  =         0.0000 E_vdwl   =         0.5940 
E_coul   =        33.2063 E_long   =       -37.5727 Press    = 2532723139.6844 
---------------- Step       55 ----- CPU =      8.1830 (sec) ----------------
TotEng   =        -3.7307 KinEng   =         0.0000 Temp     =         0.0000 
PotEng   =        -3.7307 E_bond   =         0.0000 E_angle  =         0.0000 
E_dihed  =         0.0000 E_impro  =         0.0000 E_vdwl   =         0.5928 
E_coul   =        33.2521 E_long   =       -37.5756 Press    = 2538890659.0777 
---------------- Step       56 ----- CPU =      8.2143 (sec) ----------------
TotEng   =        -3.7809 KinEng   =         0.0000 Temp     =         0.0000 
PotEng   =        -3.7809 E_bond   =         0.0000 E_angle  =         0.0000 
E_dihed  =         0.0000 E_impro  =         0.0000 E_vdwl   =         0.5872 
E_coul   =        33.2055 E_long   =       -37.5736 Press    = 2509555898.9420 
---------------- Step       57 ----- CPU =      8.4783 (sec) ----------------
TotEng   =        -3.8259 KinEng   =         0.0000 Temp     =         0.0000 
PotEng   =        -3.8259 E_bond   =         0.0000 E_angle  =         0.0000 
E_dihed  =         0.0000 E_impro  =         0.0000 E_vdwl   =         0.5839 
E_coul   =        33.1644 E_long   =       -37.5741 Press    = 2491551193.4777 
---------------- Step       58 ----- CPU =      8.5125 (sec) ----------------
TotEng   =        -3.8120 KinEng   =         0.0000 Temp     =         0.0000 
PotEng   =        -3.8120 E_bond   =         0.0000 E_angle  =         0.0000 
E_dihed  =         0.0000 E_impro  =         0.0000 E_vdwl   =         0.5931 
E_coul   =        33.1695 E_long   =       -37.5746 Press    = 2522116780.4168 
---------------- Step       59 ----- CPU =      8.5471 (sec) ----------------
TotEng   =        -3.7672 KinEng   =         0.0000 Temp     =         0.0000 
PotEng   =        -3.7672 E_bond   =         0.0000 E_angle  =         0.0000 
E_dihed  =         0.0000 E_impro  =         0.0000 E_vdwl   =         0.5944 
E_coul   =        33.2138 E_long   =       -37.5754 Press    = 2535039059.6114 
---------------- Step       60 ----- CPU =      8.5780 (sec) ----------------
TotEng   =        -3.7112 KinEng   =         0.0000 Temp     =         0.0000 
PotEng   =        -3.7112 E_bond   =         0.0000 E_angle  =         0.0000 
E_dihed  =         0.0000 E_impro  =         0.0000 E_vdwl   =         0.5953 
E_coul   =        33.2690 E_long   =       -37.5755 Press    = 2547969736.1237 
---------------- Step       61 ----- CPU =      8.8311 (sec) ----------------
TotEng   =        -3.7532 KinEng   =         0.0000 Temp     =         0.0000 
PotEng   =        -3.7532 E_bond   =         0.0000 E_angle  =         0.0000 
E_dihed  =         0.0000 E_impro  =         0.0000 E_vdwl   =         0.5948 
E_coul   =        33.2305 E_long   =       -37.5785 Press    = 2537978756.7666 
---------------- Step       62 ----- CPU =      8.8676 (sec) ----------------
TotEng   =        -3.7894 KinEng   =         0.0000 Temp     =         0.0000 
PotEng   =        -3.7894 E_bond   =         0.0000 E_angle  =         0.0000 
E_dihed  =         0.0000 E_impro  =         0.0000 E_vdwl   =         0.5917 
E_coul   =        33.1951 E_long   =       -37.5761 Press    = 2524057682.1879 
---------------- Step       63 ----- CPU =      8.8992 (sec) ----------------
TotEng   =        -3.8006 KinEng   =         0.0000 Temp     =         0.0000 
PotEng   =        -3.8006 E_bond   =         0.0000 E_angle  =         0.0000 
E_dihed  =         0.0000 E_impro  =         0.0000 E_vdwl   =         0.5928 
E_coul   =        33.1847 E_long   =       -37.5781 Press    = 2524089055.3497 
---------------- Step       64 ----- CPU =      8.9275 (sec) ----------------
TotEng   =        -3.7999 KinEng   =         0.0000 Temp     =         0.0000 
PotEng   =        -3.7999 E_bond   =         0.0000 E_angle  =         0.0000 
E_dihed  =         0.0000 E_impro  =         0.0000 E_vdwl   =         0.5799 
E_coul   =        33.1973 E_long   =       -37.5772 Press    = 2487457068.8006 
---------------- Step       65 ----- CPU =      9.1694 (sec) ----------------
TotEng   =        -3.7584 KinEng   =         0.0000 Temp     =         0.0000 
PotEng   =        -3.7584 E_bond   =         0.0000 E_angle  =         0.0000 
E_dihed  =         0.0000 E_impro  =         0.0000 E_vdwl   =         0.5760 
E_coul   =        33.2465 E_long   =       -37.5809 Press    = 2487017971.7347 
---------------- Step       66 ----- CPU =      9.2050 (sec) ----------------
TotEng   =        -3.7522 KinEng   =         0.0000 Temp     =         0.0000 
PotEng   =        -3.7522 E_bond   =         0.0000 E_angle  =         0.0000 
E_dihed  =         0.0000 E_impro  =         0.0000 E_vdwl   =         0.5899 
E_coul   =        33.2371 E_long   =       -37.5791 Press    = 2528250793.7962 
---------------- Step       67 ----- CPU =      9.2428 (sec) ----------------
TotEng   =        -3.8160 KinEng   =         0.0000 Temp     =         0.0000 
PotEng   =        -3.8160 E_bond   =         0.0000 E_angle  =         0.0000 
E_dihed  =         0.0000 E_impro  =         0.0000 E_vdwl   =         0.5910 
E_coul   =        33.1745 E_long   =       -37.5815 Press    = 2515828679.0635 
---------------- Step       68 ----- CPU =      9.2755 (sec) ----------------
TotEng   =        -3.7811 KinEng   =         0.0000 Temp     =         0.0000 
PotEng   =        -3.7811 E_bond   =         0.0000 E_angle  =         0.0000 
E_dihed  =         0.0000 E_impro  =         0.0000 E_vdwl   =         0.5924 
E_coul   =        33.2075 E_long   =       -37.5810 Press    = 2525995028.4763 
---------------- Step       69 ----- CPU =      9.5177 (sec) ----------------
TotEng   =        -3.8006 KinEng   =         0.0000 Temp     =         0.0000 
PotEng   =        -3.8006 E_bond   =         0.0000 E_angle  =         0.0000 
E_dihed  =         0.0000 E_impro  =         0.0000 E_vdwl   =         0.5884 
E_coul   =        33.1939 E_long   =       -37.5828 Press    = 2511310693.4870 
---------------- Step       70 ----- CPU =      9.5568 (sec) ----------------
TotEng   =        -3.7513 KinEng   =         0.0000 Temp     =         0.0000 
PotEng   =        -3.7513 E_bond   =         0.0000 E_angle  =         0.0000 
E_dihed  =         0.0000 E_impro  =         0.0000 E_vdwl   =         0.5862 
E_coul   =        33.2454 E_long   =       -37.5830 Press    = 2518479201.5086 
---------------- Step       71 ----- CPU =      9.5918 (sec) ----------------
TotEng   =        -3.8181 KinEng   =         0.0000 Temp     =         0.0000 
PotEng   =        -3.8181 E_bond   =         0.0000 E_angle  =         0.0000 
E_dihed  =         0.0000 E_impro  =         0.0000 E_vdwl   =         0.5889 
E_coul   =        33.1764 E_long   =       -37.5835 Press    = 2509842031.2747 
---------------- Step       72 ----- CPU =      9.6226 (sec) ----------------
TotEng   =        -3.7687 KinEng   =         0.0000 Temp     =         0.0000 
PotEng   =        -3.7687 E_bond   =         0.0000 E_angle  =         0.0000 
E_dihed  =         0.0000 E_impro  =         0.0000 E_vdwl   =         0.5731 
E_coul   =        33.2408 E_long   =       -37.5826 Press    = 2477332764.1574 
---------------- Step       73 ----- CPU =      9.8953 (sec) ----------------
TotEng   =        -3.8099 KinEng   =         0.0000 Temp     =         0.0000 
PotEng   =        -3.8099 E_bond   =         0.0000 E_angle  =         0.0000 
E_dihed  =         0.0000 E_impro  =         0.0000 E_vdwl   =         0.5733 
E_coul   =        33.1972 E_long   =       -37.5804 Press    = 2469215494.2351 
---------------- Step       74 ----- CPU =      9.9229 (sec) ----------------
TotEng   =        -3.7651 KinEng   =         0.0000 Temp     =         0.0000 
PotEng   =        -3.7651 E_bond   =         0.0000 E_angle  =         0.0000 
E_dihed  =         0.0000 E_impro  =         0.0000 E_vdwl   =         0.5823 
E_coul   =        33.2356 E_long   =       -37.5830 Press    = 2504246621.7113 
---------------- Step       75 ----- CPU =      9.9558 (sec) ----------------
TotEng   =        -3.7766 KinEng   =         0.0000 Temp     =         0.0000 
PotEng   =        -3.7766 E_bond   =         0.0000 E_angle  =         0.0000 
E_dihed  =         0.0000 E_impro  =         0.0000 E_vdwl   =         0.5875 
E_coul   =        33.2166 E_long   =       -37.5807 Press    = 2515122728.4361 
---------------- Step       76 ----- CPU =      9.9852 (sec) ----------------
TotEng   =        -3.7913 KinEng   =         0.0000 Temp     =         0.0000 
PotEng   =        -3.7913 E_bond   =         0.0000 E_angle  =         0.0000 
E_dihed  =         0.0000 E_impro  =         0.0000 E_vdwl   =         0.5853 
E_coul   =        33.2048 E_long   =       -37.5813 Press    = 2505775049.5123 
---------------- Step       77 ----- CPU =     10.2584 (sec) ----------------
TotEng   =        -3.7939 KinEng   =         0.0000 Temp     =         0.0000 
PotEng   =        -3.7939 E_bond   =         0.0000 E_angle  =         0.0000 
E_dihed  =         0.0000 E_impro  =         0.0000 E_vdwl   =         0.5858 
E_coul   =        33.1992 E_long   =       -37.5789 Press    = 2507256079.9394 
---------------- Step       78 ----- CPU =     10.2899 (sec) ----------------
TotEng   =        -3.7936 KinEng   =         0.0000 Temp     =         0.0000 
PotEng   =        -3.7936 E_bond   =         0.0000 E_angle  =         0.0000 
E_dihed  =         0.0000 E_impro  =         0.0000 E_vdwl   =         0.5816 
E_coul   =        33.2065 E_long   =       -37.5817 Press    = 2496015551.3704 
---------------- Step       79 ----- CPU =     10.3213 (sec) ----------------
TotEng   =        -3.7221 KinEng   =         0.0000 Temp     =         0.0000 
PotEng   =        -3.7221 E_bond   =         0.0000 E_angle  =         0.0000 
E_dihed  =         0.0000 E_impro  =         0.0000 E_vdwl   =         0.5884 
E_coul   =        33.2661 E_long   =       -37.5766 Press    = 2529775777.8719 
---------------- Step       80 ----- CPU =     10.3526 (sec) ----------------
TotEng   =        -3.8411 KinEng   =         0.0000 Temp     =         0.0000 
PotEng   =        -3.8411 E_bond   =         0.0000 E_angle  =         0.0000 
E_dihed  =         0.0000 E_impro  =         0.0000 E_vdwl   =         0.5796 
E_coul   =        33.1559 E_long   =       -37.5766 Press    = 2479865491.3405 
---------------- Step       81 ----- CPU =     10.6302 (sec) ----------------
TotEng   =        -3.8054 KinEng   =         0.0000 Temp     =         0.0000 
PotEng   =        -3.8054 E_bond   =         0.0000 E_angle  =         0.0000 
E_dihed  =         0.0000 E_impro  =         0.0000 E_vdwl   =         0.5920 
E_coul   =        33.1766 E_long   =       -37.5739 Press    = 2521945925.9837 
---------------- Step       82 ----- CPU =     10.6637 (sec) ----------------
TotEng   =        -3.7916 KinEng   =         0.0000 Temp     =         0.0000 
PotEng   =        -3.7916 E_bond   =         0.0000 E_angle  =         0.0000 
E_dihed  =         0.0000 E_impro  =         0.0000 E_vdwl   =         0.5863 
E_coul   =        33.2029 E_long   =       -37.5808 Press    = 2508684683.4982 
---------------- Step       83 ----- CPU =     10.6920 (sec) ----------------
TotEng   =        -3.6850 KinEng   =         0.0000 Temp     =         0.0000 
PotEng   =        -3.6850 E_bond   =         0.0000 E_angle  =         0.0000 
E_dihed  =         0.0000 E_impro  =         0.0000 E_vdwl   =         0.5920 
E_coul   =        33.2976 E_long   =       -37.5746 Press    = 2547960726.9089 
---------------- Step       84 ----- CPU =     10.7237 (sec) ----------------
TotEng   =        -3.7936 KinEng   =         0.0000 Temp     =         0.0000 
PotEng   =        -3.7936 E_bond   =         0.0000 E_angle  =         0.0000 
E_dihed  =         0.0000 E_impro  =         0.0000 E_vdwl   =         0.5902 
E_coul   =        33.1935 E_long   =       -37.5773 Press    = 2519634449.0915 
---------------- Step       85 ----- CPU =     10.9921 (sec) ----------------
TotEng   =        -3.7323 KinEng   =         0.0000 Temp     =         0.0000 
PotEng   =        -3.7323 E_bond   =         0.0000 E_angle  =         0.0000 
E_dihed  =         0.0000 E_impro  =         0.0000 E_vdwl   =         0.5980 
E_coul   =        33.2462 E_long   =       -37.5765 Press    = 2554781738.4823 
---------------- Step       86 ----- CPU =     11.0231 (sec) ----------------
TotEng   =        -3.7173 KinEng   =         0.0000 Temp     =         0.0000 
PotEng   =        -3.7173 E_bond   =         0.0000 E_angle  =         0.0000 
E_dihed  =         0.0000 E_impro  =         0.0000 E_vdwl   =         0.5962 
E_coul   =        33.2656 E_long   =       -37.5791 Press    = 2551741776.2956 
---------------- Step       87 ----- CPU =     11.0500 (sec) ----------------
TotEng   =        -3.6394 KinEng   =         0.0000 Temp     =         0.0000 
PotEng   =        -3.6394 E_bond   =         0.0000 E_angle  =         0.0000 
E_dihed  =         0.0000 E_impro  =         0.0000 E_vdwl   =         0.5993 
E_coul   =        33.3349 E_long   =       -37.5736 Press    = 2577329782.9463 
---------------- Step       88 ----- CPU =     11.0773 (sec) ----------------
TotEng   =        -3.6895 KinEng   =         0.0000 Temp     =         0.0000 
PotEng   =        -3.6895 E_bond   =         0.0000 E_angle  =         0.0000 
E_dihed  =         0.0000 E_impro  =         0.0000 E_vdwl   =         0.6085 
E_coul   =        33.2754 E_long   =       -37.5735 Press    = 2593135495.0696 
---------------- Step       89 ----- CPU =     11.3043 (sec) ----------------
TotEng   =        -3.5880 KinEng   =         0.0000 Temp     =         0.0000 
PotEng   =        -3.5880 E_bond   =         0.0000 E_angle  =         0.0000 
E_dihed  =         0.0000 E_impro  =         0.0000 E_vdwl   =         0.6267 
E_coul   =        33.3602 E_long   =       -37.5749 Press    = 2665403679.6114 
---------------- Step       90 ----- CPU =     11.3366 (sec) ----------------
TotEng   =        -3.6409 KinEng   =         0.0000 Temp     =         0.0000 
PotEng   =        -3.6409 E_bond   =         0.0000 E_angle  =         0.0000 
E_dihed  =         0.0000 E_impro  =         0.0000 E_vdwl   =         0.6087 
E_coul   =        33.3290 E_long   =       -37.5786 Press    = 2602300249.3449 
---------------- Step       91 ----- CPU =     11.3643 (sec) ----------------
TotEng   =        -3.6132 KinEng   =         0.0000 Temp     =         0.0000 
PotEng   =        -3.6132 E_bond   =         0.0000 E_angle  =         0.0000 
E_dihed  =         0.0000 E_impro  =         0.0000 E_vdwl   =         0.6098 
E_coul   =        33.3523 E_long   =       -37.5753 Press    = 2611894194.0272 
---------------- Step       92 ----- CPU =     11.3960 (sec) ----------------
TotEng   =        -3.6486 KinEng   =         0.0000 Temp     =         0.0000 
PotEng   =        -3.6486 E_bond   =         0.0000 E_angle  =         0.0000 
E_dihed  =         0.0000 E_impro  =         0.0000 E_vdwl   =         0.6082 
E_coul   =        33.3203 E_long   =       -37.5770 Press    = 2601444582.5284 
---------------- Step       93 ----- CPU =     11.6438 (sec) ----------------
TotEng   =        -3.6015 KinEng   =         0.0000 Temp     =         0.0000 
PotEng   =        -3.6015 E_bond   =         0.0000 E_angle  =         0.0000 
E_dihed  =         0.0000 E_impro  =         0.0000 E_vdwl   =         0.6175 
E_coul   =        33.3580 E_long   =       -37.5770 Press    = 2636450089.8618 
---------------- Step       94 ----- CPU =     11.6755 (sec) ----------------
TotEng   =        -3.6326 KinEng   =         0.0000 Temp     =         0.0000 
PotEng   =        -3.6326 E_bond   =         0.0000 E_angle  =         0.0000 
E_dihed  =         0.0000 E_impro  =         0.0000 E_vdwl   =         0.6186 
E_coul   =        33.3266 E_long   =       -37.5778 Press    = 2630991146.6868 
---------------- Step       95 ----- CPU =     11.7065 (sec) ----------------
TotEng   =        -3.6399 KinEng   =         0.0000 Temp     =         0.0000 
PotEng   =        -3.6399 E_bond   =         0.0000 E_angle  =         0.0000 
E_dihed  =         0.0000 E_impro  =         0.0000 E_vdwl   =         0.6202 
E_coul   =        33.3185 E_long   =       -37.5786 Press    = 2634553759.0847 
---------------- Step       96 ----- CPU =     11.7371 (sec) ----------------
TotEng   =        -3.5901 KinEng   =         0.0000 Temp     =         0.0000 
PotEng   =        -3.5901 E_bond   =         0.0000 E_angle  =         0.0000 
E_dihed  =         0.0000 E_impro  =         0.0000 E_vdwl   =         0.6417 
E_coul   =        33.3441 E_long   =       -37.5759 Press    = 2705156931.2232 
---------------- Step       97 ----- CPU =     11.9771 (sec) ----------------
TotEng   =        -3.6903 KinEng   =         0.0000 Temp     =         0.0000 
PotEng   =        -3.6903 E_bond   =         0.0000 E_angle  =         0.0000 
E_dihed  =         0.0000 E_impro  =         0.0000 E_vdwl   =         0.6496 
E_coul   =        33.2343 E_long   =       -37.5742 Press    = 2703997083.6495 
---------------- Step       98 ----- CPU =     12.0041 (sec) ----------------
TotEng   =        -3.6860 KinEng   =         0.0000 Temp     =         0.0000 
PotEng   =        -3.6860 E_bond   =         0.0000 E_angle  =         0.0000 
E_dihed  =         0.0000 E_impro  =         0.0000 E_vdwl   =         0.6231 
E_coul   =        33.2634 E_long   =       -37.5725 Press    = 2631203936.7014 
---------------- Step       99 ----- CPU =     12.0300 (sec) ----------------
TotEng   =        -3.6896 KinEng   =         0.0000 Temp     =         0.0000 
PotEng   =        -3.6896 E_bond   =         0.0000 E_angle  =         0.0000 
E_dihed  =         0.0000 E_impro  =         0.0000 E_vdwl   =         0.6279 
E_coul   =        33.2610 E_long   =       -37.5784 Press    = 2644316784.6335 
---------------- Step      100 ----- CPU =     12.0580 (sec) ----------------
TotEng   =        -3.6167 KinEng   =         0.0000 Temp     =         0.0000 
PotEng   =        -3.6167 E_bond   =         0.0000 E_angle  =         0.0000 
E_dihed  =         0.0000 E_impro  =         0.0000 E_vdwl   =         0.6235 
E_coul   =        33.3345 E_long   =       -37.5746 Press    = 2649091568.6062 
---------------- Step      101 ----- CPU =     12.3003 (sec) ----------------
TotEng   =        -3.7087 KinEng   =         0.0000 Temp     =         0.0000 
PotEng   =        -3.7087 E_bond   =         0.0000 E_angle  =         0.0000 
E_dihed  =         0.0000 E_impro  =         0.0000 E_vdwl   =         0.6270 
E_coul   =        33.2363 E_long   =       -37.5720 Press    = 2638322448.1582 
---------------- Step      102 ----- CPU =     12.3316 (sec) ----------------
TotEng   =        -3.7777 KinEng   =         0.0000 Temp     =         0.0000 
PotEng   =        -3.7777 E_bond   =         0.0000 E_angle  =         0.0000 
E_dihed  =         0.0000 E_impro  =         0.0000 E_vdwl   =         0.6243 
E_coul   =        33.1648 E_long   =       -37.5668 Press    = 2614019865.1356 
---------------- Step      103 ----- CPU =     12.3660 (sec) ----------------
TotEng   =        -3.7490 KinEng   =         0.0000 Temp     =         0.0000 
PotEng   =        -3.7490 E_bond   =         0.0000 E_angle  =         0.0000 
E_dihed  =         0.0000 E_impro  =         0.0000 E_vdwl   =         0.6322 
E_coul   =        33.1943 E_long   =       -37.5754 Press    = 2643130457.8136 
---------------- Step      104 ----- CPU =     12.3969 (sec) ----------------
TotEng   =        -3.8248 KinEng   =         0.0000 Temp     =         0.0000 
PotEng   =        -3.8248 E_bond   =         0.0000 E_angle  =         0.0000 
E_dihed  =         0.0000 E_impro  =         0.0000 E_vdwl   =         0.6502 
E_coul   =        33.0959 E_long   =       -37.5709 Press    = 2675122343.8912 
---------------- Step      105 ----- CPU =     12.6213 (sec) ----------------
TotEng   =        -3.8794 KinEng   =         0.0000 Temp     =         0.0000 
PotEng   =        -3.8794 E_bond   =         0.0000 E_angle  =         0.0000 
E_dihed  =         0.0000 E_impro  =         0.0000 E_vdwl   =         0.6458 
E_coul   =        33.0439 E_long   =       -37.5691 Press    = 2651443011.3768 
---------------- Step      106 ----- CPU =     12.6488 (sec) ----------------
TotEng   =        -3.8299 KinEng   =         0.0000 Temp     =         0.0000 
PotEng   =        -3.8299 E_bond   =         0.0000 E_angle  =         0.0000 
E_dihed  =         0.0000 E_impro  =         0.0000 E_vdwl   =         0.6255 
E_coul   =        33.1087 E_long   =       -37.5640 Press    = 2606403157.8417 
---------------- Step      107 ----- CPU =     12.6809 (sec) ----------------
TotEng   =        -3.7943 KinEng   =         0.0000 Temp     =         0.0000 
PotEng   =        -3.7943 E_bond   =         0.0000 E_angle  =         0.0000 
E_dihed  =         0.0000 E_impro  =         0.0000 E_vdwl   =         0.6341 
E_coul   =        33.1441 E_long   =       -37.5725 Press    = 2638258903.9174 
---------------- Step      108 ----- CPU =     12.7080 (sec) ----------------
TotEng   =        -3.8132 KinEng   =         0.0000 Temp     =         0.0000 
PotEng   =        -3.8132 E_bond   =         0.0000 E_angle  =         0.0000 
E_dihed  =         0.0000 E_impro  =         0.0000 E_vdwl   =         0.6306 
E_coul   =        33.1268 E_long   =       -37.5706 Press    = 2625146374.3971 
---------------- Step      109 ----- CPU =     12.9303 (sec) ----------------
TotEng   =        -3.8273 KinEng   =         0.0000 Temp     =         0.0000 
PotEng   =        -3.8273 E_bond   =         0.0000 E_angle  =         0.0000 
E_dihed  =         0.0000 E_impro  =         0.0000 E_vdwl   =         0.6371 
E_coul   =        33.1058 E_long   =       -37.5702 Press    = 2639873188.8518 
---------------- Step      110 ----- CPU =     12.9612 (sec) ----------------
TotEng   =        -3.7722 KinEng   =         0.0000 Temp     =         0.0000 
PotEng   =        -3.7722 E_bond   =         0.0000 E_angle  =         0.0000 
E_dihed  =         0.0000 E_impro  =         0.0000 E_vdwl   =         0.6310 
E_coul   =        33.1612 E_long   =       -37.5644 Press    = 2634872517.0945 
---------------- Step      111 ----- CPU =     12.9960 (sec) ----------------
TotEng   =        -3.7705 KinEng   =         0.0000 Temp     =         0.0000 
PotEng   =        -3.7705 E_bond   =         0.0000 E_angle  =         0.0000 
E_dihed  =         0.0000 E_impro  =         0.0000 E_vdwl   =         0.6375 
E_coul   =        33.1633 E_long   =       -37.5713 Press    = 2652849067.1266 
---------------- Step      112 ----- CPU =     13.0276 (sec) ----------------
TotEng   =        -3.7898 KinEng   =         0.0000 Temp     =         0.0000 
PotEng   =        -3.7898 E_bond   =         0.0000 E_angle  =         0.0000 
E_dihed  =         0.0000 E_impro  =         0.0000 E_vdwl   =         0.6417 
E_coul   =        33.1399 E_long   =       -37.5715 Press    = 2660519669.5854 
---------------- Step      113 ----- CPU =     13.2860 (sec) ----------------
TotEng   =        -3.6292 KinEng   =         0.0000 Temp     =         0.0000 
PotEng   =        -3.6292 E_bond   =         0.0000 E_angle  =         0.0000 
E_dihed  =         0.0000 E_impro  =         0.0000 E_vdwl   =         0.6419 
E_coul   =        33.3045 E_long   =       -37.5756 Press    = 2696881895.6616 
---------------- Step      114 ----- CPU =     13.3203 (sec) ----------------
TotEng   =        -3.6446 KinEng   =         0.0000 Temp     =         0.0000 
PotEng   =        -3.6446 E_bond   =         0.0000 E_angle  =         0.0000 
E_dihed  =         0.0000 E_impro  =         0.0000 E_vdwl   =         0.6427 
E_coul   =        33.2814 E_long   =       -37.5687 Press    = 2695006856.8154 
---------------- Step      115 ----- CPU =     13.3515 (sec) ----------------
TotEng   =        -3.6793 KinEng   =         0.0000 Temp     =         0.0000 
PotEng   =        -3.6793 E_bond   =         0.0000 E_angle  =         0.0000 
E_dihed  =         0.0000 E_impro  =         0.0000 E_vdwl   =         0.6457 
E_coul   =        33.2477 E_long   =       -37.5728 Press    = 2695627777.2941 
---------------- Step      116 ----- CPU =     13.3787 (sec) ----------------
TotEng   =        -3.7393 KinEng   =         0.0000 Temp     =         0.0000 
PotEng   =        -3.7393 E_bond   =         0.0000 E_angle  =         0.0000 
E_dihed  =         0.0000 E_impro  =         0.0000 E_vdwl   =         0.6477 
E_coul   =        33.1848 E_long   =       -37.5718 Press    = 2687742811.0130 
---------------- Step      117 ----- CPU =     13.6217 (sec) ----------------
TotEng   =        -3.6179 KinEng   =         0.0000 Temp     =         0.0000 
PotEng   =        -3.6179 E_bond   =         0.0000 E_angle  =         0.0000 
E_dihed  =         0.0000 E_impro  =         0.0000 E_vdwl   =         0.6606 
E_coul   =        33.2974 E_long   =       -37.5758 Press    = 2749493811.6298 
---------------- Step      118 ----- CPU =     13.6571 (sec) ----------------
TotEng   =        -3.5429 KinEng   =         0.0000 Temp     =         0.0000 
PotEng   =        -3.5429 E_bond   =         0.0000 E_angle  =         0.0000 
E_dihed  =         0.0000 E_impro  =         0.0000 E_vdwl   =         0.6578 
E_coul   =        33.3736 E_long   =       -37.5744 Press    = 2758805039.5272 
---------------- Step      119 ----- CPU =     13.6924 (sec) ----------------
TotEng   =        -3.5768 KinEng   =         0.0000 Temp     =         0.0000 
PotEng   =        -3.5768 E_bond   =         0.0000 E_angle  =         0.0000 
E_dihed  =         0.0000 E_impro  =         0.0000 E_vdwl   =         0.6573 
E_coul   =        33.3412 E_long   =       -37.5752 Press    = 2750008663.6622 
---------------- Step      120 ----- CPU =     13.7237 (sec) ----------------
TotEng   =        -3.5242 KinEng   =         0.0000 Temp     =         0.0000 
PotEng   =        -3.5242 E_bond   =         0.0000 E_angle  =         0.0000 
E_dihed  =         0.0000 E_impro  =         0.0000 E_vdwl   =         0.6460 
E_coul   =        33.4084 E_long   =       -37.5785 Press    = 2731550876.8503 
---------------- Step      121 ----- CPU =     13.9893 (sec) ----------------
TotEng   =        -3.5437 KinEng   =         0.0000 Temp     =         0.0000 
PotEng   =        -3.5437 E_bond   =         0.0000 E_angle  =         0.0000 
E_dihed  =         0.0000 E_impro  =         0.0000 E_vdwl   =         0.6520 
E_coul   =        33.3844 E_long   =       -37.5801 Press    = 2743165647.1611 
---------------- Step      122 ----- CPU =     14.0174 (sec) ----------------
TotEng   =        -3.5413 KinEng   =         0.0000 Temp     =         0.0000 
PotEng   =        -3.5413 E_bond   =         0.0000 E_angle  =         0.0000 
E_dihed  =         0.0000 E_impro  =         0.0000 E_vdwl   =         0.6728 
E_coul   =        33.3647 E_long   =       -37.5788 Press    = 2799633918.5717 
---------------- Step      123 ----- CPU =     14.0518 (sec) ----------------
TotEng   =        -3.5185 KinEng   =         0.0000 Temp     =         0.0000 
PotEng   =        -3.5185 E_bond   =         0.0000 E_angle  =         0.0000 
E_dihed  =         0.0000 E_impro  =         0.0000 E_vdwl   =         0.6680 
E_coul   =        33.3904 E_long   =       -37.5770 Press    = 2791928868.7134 
---------------- Step      124 ----- CPU =     14.0826 (sec) ----------------
TotEng   =        -3.5531 KinEng   =         0.0000 Temp     =         0.0000 
PotEng   =        -3.5531 E_bond   =         0.0000 E_angle  =         0.0000 
E_dihed  =         0.0000 E_impro  =         0.0000 E_vdwl   =         0.6729 
E_coul   =        33.3532 E_long   =       -37.5793 Press    = 2797315149.9842 
---------------- Step      125 ----- CPU =     14.3412 (sec) ----------------
TotEng   =        -3.6152 KinEng   =         0.0000 Temp     =         0.0000 
PotEng   =        -3.6152 E_bond   =         0.0000 E_angle  =         0.0000 
E_dihed  =         0.0000 E_impro  =         0.0000 E_vdwl   =         0.6835 
E_coul   =        33.2823 E_long   =       -37.5811 Press    = 2811700768.0895 
---------------- Step      126 ----- CPU =     14.3728 (sec) ----------------
TotEng   =        -3.6525 KinEng   =         0.0000 Temp     =         0.0000 
PotEng   =        -3.6525 E_bond   =         0.0000 E_angle  =         0.0000 
E_dihed  =         0.0000 E_impro  =         0.0000 E_vdwl   =         0.6856 
E_coul   =        33.2451 E_long   =       -37.5832 Press    = 2809174501.5729 
---------------- Step      127 ----- CPU =     14.4000 (sec) ----------------
TotEng   =        -3.5444 KinEng   =         0.0000 Temp     =         0.0000 
PotEng   =        -3.5444 E_bond   =         0.0000 E_angle  =         0.0000 
E_dihed  =         0.0000 E_impro  =         0.0000 E_vdwl   =         0.6757 
E_coul   =        33.3587 E_long   =       -37.5787 Press    = 2806973541.8816 
---------------- Step      128 ----- CPU =     14.4310 (sec) ----------------
TotEng   =        -3.6538 KinEng   =         0.0000 Temp     =         0.0000 
PotEng   =        -3.6538 E_bond   =         0.0000 E_angle  =         0.0000 
E_dihed  =         0.0000 E_impro  =         0.0000 E_vdwl   =         0.6588 
E_coul   =        33.2677 E_long   =       -37.5803 Press    = 2736146403.3644 
---------------- Step      129 ----- CPU =     14.6832 (sec) ----------------
TotEng   =        -3.7517 KinEng   =         0.0000 Temp     =         0.0000 
PotEng   =        -3.7517 E_bond   =         0.0000 E_angle  =         0.0000 
E_dihed  =         0.0000 E_impro  =         0.0000 E_vdwl   =         0.6657 
E_coul   =        33.1638 E_long   =       -37.5812 Press    = 2732919523.0836 
---------------- Step      130 ----- CPU =     14.7107 (sec) ----------------
TotEng   =        -3.7851 KinEng   =         0.0000 Temp     =         0.0000 
PotEng   =        -3.7851 E_bond   =         0.0000 E_angle  =         0.0000 
E_dihed  =         0.0000 E_impro  =         0.0000 E_vdwl   =         0.6947 
E_coul   =        33.1056 E_long   =       -37.5854 Press    = 2803899476.9762 
---------------- Step      131 ----- CPU =     14.7376 (sec) ----------------
TotEng   =        -3.6395 KinEng   =         0.0000 Temp     =         0.0000 
PotEng   =        -3.6395 E_bond   =         0.0000 E_angle  =         0.0000 
E_dihed  =         0.0000 E_impro  =         0.0000 E_vdwl   =         0.6799 
E_coul   =        33.2603 E_long   =       -37.5797 Press    = 2796817421.2360 
---------------- Step      132 ----- CPU =     14.7727 (sec) ----------------
TotEng   =        -3.7534 KinEng   =         0.0000 Temp     =         0.0000 
PotEng   =        -3.7534 E_bond   =         0.0000 E_angle  =         0.0000 
E_dihed  =         0.0000 E_impro  =         0.0000 E_vdwl   =         0.6913 
E_coul   =        33.1370 E_long   =       -37.5817 Press    = 2801253062.5021 
---------------- Step      133 ----- CPU =     15.0251 (sec) ----------------
TotEng   =        -3.8215 KinEng   =         0.0000 Temp     =         0.0000 
PotEng   =        -3.8215 E_bond   =         0.0000 E_angle  =         0.0000 
E_dihed  =         0.0000 E_impro  =         0.0000 E_vdwl   =         0.6954 
E_coul   =        33.0643 E_long   =       -37.5812 Press    = 2797452902.1349 
---------------- Step      134 ----- CPU =     15.0567 (sec) ----------------
TotEng   =        -3.8223 KinEng   =         0.0000 Temp     =         0.0000 
PotEng   =        -3.8223 E_bond   =         0.0000 E_angle  =         0.0000 
E_dihed  =         0.0000 E_impro  =         0.0000 E_vdwl   =         0.7005 
E_coul   =        33.0606 E_long   =       -37.5834 Press    = 2811601616.5287 
---------------- Step      135 ----- CPU =     15.0836 (sec) ----------------
TotEng   =        -3.7217 KinEng   =         0.0000 Temp     =         0.0000 
PotEng   =        -3.7217 E_bond   =         0.0000 E_angle  =         0.0000 
E_dihed  =         0.0000 E_impro  =         0.0000 E_vdwl   =         0.6828 
E_coul   =        33.1742 E_long   =       -37.5788 Press    = 2786180945.0822 
---------------- Step      136 ----- CPU =     15.1142 (sec) ----------------
TotEng   =        -3.7527 KinEng   =         0.0000 Temp     =         0.0000 
PotEng   =        -3.7527 E_bond   =         0.0000 E_angle  =         0.0000 
E_dihed  =         0.0000 E_impro  =         0.0000 E_vdwl   =         0.6731 
E_coul   =        33.1575 E_long   =       -37.5833 Press    = 2752472863.4864 
---------------- Step      137 ----- CPU =     15.5620 (sec) ----------------
TotEng   =        -3.6652 KinEng   =         0.0000 Temp     =         0.0000 
PotEng   =        -3.6652 E_bond   =         0.0000 E_angle  =         0.0000 
E_dihed  =         0.0000 E_impro  =         0.0000 E_vdwl   =         0.6805 
E_coul   =        33.2394 E_long   =       -37.5851 Press    = 2792264930.4041 
---------------- Step      138 ----- CPU =     15.5884 (sec) ----------------
TotEng   =        -3.7376 KinEng   =         0.0000 Temp     =         0.0000 
PotEng   =        -3.7376 E_bond   =         0.0000 E_angle  =         0.0000 
E_dihed  =         0.0000 E_impro  =         0.0000 E_vdwl   =         0.7039 
E_coul   =        33.1387 E_long   =       -37.5801 Press    = 2840126503.6076 
---------------- Step      139 ----- CPU =     15.6179 (sec) ----------------
TotEng   =        -3.7248 KinEng   =         0.0000 Temp     =         0.0000 
PotEng   =        -3.7248 E_bond   =         0.0000 E_angle  =         0.0000 
E_dihed  =         0.0000 E_impro  =         0.0000 E_vdwl   =         0.6867 
E_coul   =        33.1659 E_long   =       -37.5775 Press    = 2796113220.2913 
---------------- Step      140 ----- CPU =     15.6453 (sec) ----------------
TotEng   =        -3.7458 KinEng   =         0.0000 Temp     =         0.0000 
PotEng   =        -3.7458 E_bond   =         0.0000 E_angle  =         0.0000 
E_dihed  =         0.0000 E_impro  =         0.0000 E_vdwl   =         0.6970 
E_coul   =        33.1363 E_long   =       -37.5791 Press    = 2818564021.4232 
---------------- Step      141 ----- CPU =     15.8671 (sec) ----------------
TotEng   =        -3.5784 KinEng   =         0.0000 Temp     =         0.0000 
PotEng   =        -3.5784 E_bond   =         0.0000 E_angle  =         0.0000 
E_dihed  =         0.0000 E_impro  =         0.0000 E_vdwl   =         0.6970 
E_coul   =        33.3016 E_long   =       -37.5771 Press    = 2855767094.8061 
---------------- Step      142 ----- CPU =     15.8940 (sec) ----------------
TotEng   =        -3.5952 KinEng   =         0.0000 Temp     =         0.0000 
PotEng   =        -3.5952 E_bond   =         0.0000 E_angle  =         0.0000 
E_dihed  =         0.0000 E_impro  =         0.0000 E_vdwl   =         0.7048 
E_coul   =        33.2794 E_long   =       -37.5793 Press    = 2874685118.6568 
---------------- Step      143 ----- CPU =     15.9246 (sec) ----------------
TotEng   =        -3.6477 KinEng   =         0.0000 Temp     =         0.0000 
PotEng   =        -3.6477 E_bond   =         0.0000 E_angle  =         0.0000 
E_dihed  =         0.0000 E_impro  =         0.0000 E_vdwl   =         0.6912 
E_coul   =        33.2380 E_long   =       -37.5768 Press    = 2825036884.6665 
---------------- Step      144 ----- CPU =     15.9559 (sec) ----------------
TotEng   =        -3.5646 KinEng   =         0.0000 Temp     =         0.0000 
PotEng   =        -3.5646 E_bond   =         0.0000 E_angle  =         0.0000 
E_dihed  =         0.0000 E_impro  =         0.0000 E_vdwl   =         0.6874 
E_coul   =        33.3330 E_long   =       -37.5849 Press    = 2833168839.6569 
---------------- Step      145 ----- CPU =     16.2023 (sec) ----------------
TotEng   =        -3.5238 KinEng   =         0.0000 Temp     =         0.0000 
PotEng   =        -3.5238 E_bond   =         0.0000 E_angle  =         0.0000 
E_dihed  =         0.0000 E_impro  =         0.0000 E_vdwl   =         0.6934 
E_coul   =        33.3654 E_long   =       -37.5826 Press    = 2857908628.4624 
---------------- Step      146 ----- CPU =     16.2344 (sec) ----------------
TotEng   =        -3.4898 KinEng   =         0.0000 Temp     =         0.0000 
PotEng   =        -3.4898 E_bond   =         0.0000 E_angle  =         0.0000 
E_dihed  =         0.0000 E_impro  =         0.0000 E_vdwl   =         0.7038 
E_coul   =        33.3854 E_long   =       -37.5791 Press    = 2895903519.2285 
---------------- Step      147 ----- CPU =     16.2614 (sec) ----------------
TotEng   =        -3.5507 KinEng   =         0.0000 Temp     =         0.0000 
PotEng   =        -3.5507 E_bond   =         0.0000 E_angle  =         0.0000 
E_dihed  =         0.0000 E_impro  =         0.0000 E_vdwl   =         0.6960 
E_coul   =        33.3303 E_long   =       -37.5770 Press    = 2859943284.8116 
---------------- Step      148 ----- CPU =     16.2932 (sec) ----------------
TotEng   =        -3.4428 KinEng   =         0.0000 Temp     =         0.0000 
PotEng   =        -3.4428 E_bond   =         0.0000 E_angle  =         0.0000 
E_dihed  =         0.0000 E_impro  =         0.0000 E_vdwl   =         0.6957 
E_coul   =        33.4391 E_long   =       -37.5775 Press    = 2883088370.2258 
---------------- Step      149 ----- CPU =     16.5479 (sec) ----------------
TotEng   =        -3.4460 KinEng   =         0.0000 Temp     =         0.0000 
PotEng   =        -3.4460 E_bond   =         0.0000 E_angle  =         0.0000 
E_dihed  =         0.0000 E_impro  =         0.0000 E_vdwl   =         0.6943 
E_coul   =        33.4389 E_long   =       -37.5792 Press    = 2879025441.4289 
---------------- Step      150 ----- CPU =     16.5794 (sec) ----------------
TotEng   =        -3.4894 KinEng   =         0.0000 Temp     =         0.0000 
PotEng   =        -3.4894 E_bond   =         0.0000 E_angle  =         0.0000 
E_dihed  =         0.0000 E_impro  =         0.0000 E_vdwl   =         0.7020 
E_coul   =        33.3870 E_long   =       -37.5783 Press    = 2890581526.6573 
---------------- Step      151 ----- CPU =     16.6067 (sec) ----------------
TotEng   =        -3.5254 KinEng   =         0.0000 Temp     =         0.0000 
PotEng   =        -3.5254 E_bond   =         0.0000 E_angle  =         0.0000 
E_dihed  =         0.0000 E_impro  =         0.0000 E_vdwl   =         0.7011 
E_coul   =        33.3527 E_long   =       -37.5792 Press    = 2879309401.7667 
---------------- Step      152 ----- CPU =     16.6334 (sec) ----------------
TotEng   =        -3.5558 KinEng   =         0.0000 Temp     =         0.0000 
PotEng   =        -3.5558 E_bond   =         0.0000 E_angle  =         0.0000 
E_dihed  =         0.0000 E_impro  =         0.0000 E_vdwl   =         0.6987 
E_coul   =        33.3234 E_long   =       -37.5779 Press    = 2865532678.8984 
---------------- Step      153 ----- CPU =     16.8868 (sec) ----------------
TotEng   =        -3.6178 KinEng   =         0.0000 Temp     =         0.0000 
PotEng   =        -3.6178 E_bond   =         0.0000 E_angle  =         0.0000 
E_dihed  =         0.0000 E_impro  =         0.0000 E_vdwl   =         0.7039 
E_coul   =        33.2517 E_long   =       -37.5734 Press    = 2866195387.0620 
---------------- Step      154 ----- CPU =     16.9141 (sec) ----------------
TotEng   =        -3.5700 KinEng   =         0.0000 Temp     =         0.0000 
PotEng   =        -3.5700 E_bond   =         0.0000 E_angle  =         0.0000 
E_dihed  =         0.0000 E_impro  =         0.0000 E_vdwl   =         0.7001 
E_coul   =        33.3077 E_long   =       -37.5778 Press    = 2867906310.6947 
---------------- Step      155 ----- CPU =     16.9450 (sec) ----------------
TotEng   =        -3.6053 KinEng   =         0.0000 Temp     =         0.0000 
PotEng   =        -3.6053 E_bond   =         0.0000 E_angle  =         0.0000 
E_dihed  =         0.0000 E_impro  =         0.0000 E_vdwl   =         0.7063 
E_coul   =        33.2710 E_long   =       -37.5826 Press    = 2874840304.9033 
---------------- Step      156 ----- CPU =     16.9797 (sec) ----------------
TotEng   =        -3.5710 KinEng   =         0.0000 Temp     =         0.0000 
PotEng   =        -3.5710 E_bond   =         0.0000 E_angle  =         0.0000 
E_dihed  =         0.0000 E_impro  =         0.0000 E_vdwl   =         0.6946 
E_coul   =        33.3129 E_long   =       -37.5785 Press    = 2851776638.7436 
---------------- Step      157 ----- CPU =     17.2091 (sec) ----------------
TotEng   =        -3.6945 KinEng   =         0.0000 Temp     =         0.0000 
PotEng   =        -3.6945 E_bond   =         0.0000 E_angle  =         0.0000 
E_dihed  =         0.0000 E_impro  =         0.0000 E_vdwl   =         0.6975 
E_coul   =        33.1827 E_long   =       -37.5747 Press    = 2832118464.7424 
---------------- Step      158 ----- CPU =     17.2419 (sec) ----------------
TotEng   =        -3.6490 KinEng   =         0.0000 Temp     =         0.0000 
PotEng   =        -3.6490 E_bond   =         0.0000 E_angle  =         0.0000 
E_dihed  =         0.0000 E_impro  =         0.0000 E_vdwl   =         0.7002 
E_coul   =        33.2269 E_long   =       -37.5761 Press    = 2850024246.0654 
---------------- Step      159 ----- CPU =     17.2689 (sec) ----------------
TotEng   =        -3.7094 KinEng   =         0.0000 Temp     =         0.0000 
PotEng   =        -3.7094 E_bond   =         0.0000 E_angle  =         0.0000 
E_dihed  =         0.0000 E_impro  =         0.0000 E_vdwl   =         0.7125 
E_coul   =        33.1618 E_long   =       -37.5837 Press    = 2868267157.7416 
---------------- Step      160 ----- CPU =     17.2998 (sec) ----------------
TotEng   =        -3.6466 KinEng   =         0.0000 Temp     =         0.0000 
PotEng   =        -3.6466 E_bond   =         0.0000 E_angle  =         0.0000 
E_dihed  =         0.0000 E_impro  =         0.0000 E_vdwl   =         0.7103 
E_coul   =        33.2157 E_long   =       -37.5727 Press    = 2877179293.3411 
---------------- Step      161 ----- CPU =     17.5464 (sec) ----------------
TotEng   =        -3.6129 KinEng   =         0.0000 Temp     =         0.0000 
PotEng   =        -3.6129 E_bond   =         0.0000 E_angle  =         0.0000 
E_dihed  =         0.0000 E_impro  =         0.0000 E_vdwl   =         0.7181 
E_coul   =        33.2426 E_long   =       -37.5737 Press    = 2905911331.1242 
---------------- Step      162 ----- CPU =     17.5812 (sec) ----------------
TotEng   =        -3.6557 KinEng   =         0.0000 Temp     =         0.0000 
PotEng   =        -3.6557 E_bond   =         0.0000 E_angle  =         0.0000 
E_dihed  =         0.0000 E_impro  =         0.0000 E_vdwl   =         0.7029 
E_coul   =        33.2162 E_long   =       -37.5748 Press    = 2855356980.1256 
---------------- Step      163 ----- CPU =     17.6118 (sec) ----------------
TotEng   =        -3.7310 KinEng   =         0.0000 Temp     =         0.0000 
PotEng   =        -3.7310 E_bond   =         0.0000 E_angle  =         0.0000 
E_dihed  =         0.0000 E_impro  =         0.0000 E_vdwl   =         0.7200 
E_coul   =        33.1308 E_long   =       -37.5818 Press    = 2883455210.5003 
---------------- Step      164 ----- CPU =     17.6393 (sec) ----------------
TotEng   =        -3.7132 KinEng   =         0.0000 Temp     =         0.0000 
PotEng   =        -3.7132 E_bond   =         0.0000 E_angle  =         0.0000 
E_dihed  =         0.0000 E_impro  =         0.0000 E_vdwl   =         0.7033 
E_coul   =        33.1553 E_long   =       -37.5718 Press    = 2843854187.9563 
---------------- Step      165 ----- CPU =     17.8731 (sec) ----------------
TotEng   =        -3.6109 KinEng   =         0.0000 Temp     =         0.0000 
PotEng   =        -3.6109 E_bond   =         0.0000 E_angle  =         0.0000 
E_dihed  =         0.0000 E_impro  =         0.0000 E_vdwl   =         0.7096 
E_coul   =        33.2532 E_long   =       -37.5737 Press    = 2883602008.7531 
---------------- Step      166 ----- CPU =     17.8999 (sec) ----------------
TotEng   =        -3.5822 KinEng   =         0.0000 Temp     =         0.0000 
PotEng   =        -3.5822 E_bond   =         0.0000 E_angle  =         0.0000 
E_dihed  =         0.0000 E_impro  =         0.0000 E_vdwl   =         0.7057 
E_coul   =        33.2886 E_long   =       -37.5765 Press    = 2878613222.7950 
---------------- Step      167 ----- CPU =     17.9255 (sec) ----------------
TotEng   =        -3.6391 KinEng   =         0.0000 Temp     =         0.0000 
PotEng   =        -3.6391 E_bond   =         0.0000 E_angle  =         0.0000 
E_dihed  =         0.0000 E_impro  =         0.0000 E_vdwl   =         0.7251 
E_coul   =        33.2155 E_long   =       -37.5798 Press    = 2918076961.3844 
---------------- Step      168 ----- CPU =     17.9511 (sec) ----------------
TotEng   =        -3.5560 KinEng   =         0.0000 Temp     =         0.0000 
PotEng   =        -3.5560 E_bond   =         0.0000 E_angle  =         0.0000 
E_dihed  =         0.0000 E_impro  =         0.0000 E_vdwl   =         0.7248 
E_coul   =        33.2937 E_long   =       -37.5745 Press    = 2936128367.9575 
---------------- Step      169 ----- CPU =     18.2285 (sec) ----------------
TotEng   =        -3.5321 KinEng   =         0.0000 Temp     =         0.0000 
PotEng   =        -3.5321 E_bond   =         0.0000 E_angle  =         0.0000 
E_dihed  =         0.0000 E_impro  =         0.0000 E_vdwl   =         0.7268 
E_coul   =        33.3170 E_long   =       -37.5758 Press    = 2946925030.9514 
---------------- Step      170 ----- CPU =     18.2600 (sec) ----------------
TotEng   =        -3.4993 KinEng   =         0.0000 Temp     =         0.0000 
PotEng   =        -3.4993 E_bond   =         0.0000 E_angle  =         0.0000 
E_dihed  =         0.0000 E_impro  =         0.0000 E_vdwl   =         0.7059 
E_coul   =        33.3752 E_long   =       -37.5803 Press    = 2897248731.7288 
---------------- Step      171 ----- CPU =     18.2871 (sec) ----------------
TotEng   =        -3.5024 KinEng   =         0.0000 Temp     =         0.0000 
PotEng   =        -3.5024 E_bond   =         0.0000 E_angle  =         0.0000 
E_dihed  =         0.0000 E_impro  =         0.0000 E_vdwl   =         0.7244 
E_coul   =        33.3528 E_long   =       -37.5795 Press    = 2946913374.7951 
---------------- Step      172 ----- CPU =     18.3179 (sec) ----------------
TotEng   =        -3.4772 KinEng   =         0.0000 Temp     =         0.0000 
PotEng   =        -3.4772 E_bond   =         0.0000 E_angle  =         0.0000 
E_dihed  =         0.0000 E_impro  =         0.0000 E_vdwl   =         0.7117 
E_coul   =        33.3896 E_long   =       -37.5785 Press    = 2919483179.5852 
---------------- Step      173 ----- CPU =     18.5579 (sec) ----------------
TotEng   =        -3.4484 KinEng   =         0.0000 Temp     =         0.0000 
PotEng   =        -3.4484 E_bond   =         0.0000 E_angle  =         0.0000 
E_dihed  =         0.0000 E_impro  =         0.0000 E_vdwl   =         0.7071 
E_coul   =        33.4264 E_long   =       -37.5819 Press    = 2913746975.6458 
---------------- Step      174 ----- CPU =     18.5882 (sec) ----------------
TotEng   =        -3.4994 KinEng   =         0.0000 Temp     =         0.0000 
PotEng   =        -3.4994 E_bond   =         0.0000 E_angle  =         0.0000 
E_dihed  =         0.0000 E_impro  =         0.0000 E_vdwl   =         0.7021 
E_coul   =        33.3827 E_long   =       -37.5842 Press    = 2886714833.9869 
---------------- Step      175 ----- CPU =     18.6187 (sec) ----------------
TotEng   =        -3.4347 KinEng   =         0.0000 Temp     =         0.0000 
PotEng   =        -3.4347 E_bond   =         0.0000 E_angle  =         0.0000 
E_dihed  =         0.0000 E_impro  =         0.0000 E_vdwl   =         0.7167 
E_coul   =        33.4267 E_long   =       -37.5781 Press    = 2941581480.6760 
---------------- Step      176 ----- CPU =     18.6491 (sec) ----------------
TotEng   =        -3.5653 KinEng   =         0.0000 Temp     =         0.0000 
PotEng   =        -3.5653 E_bond   =         0.0000 E_angle  =         0.0000 
E_dihed  =         0.0000 E_impro  =         0.0000 E_vdwl   =         0.7216 
E_coul   =        33.2903 E_long   =       -37.5772 Press    = 2926640983.2027 
---------------- Step      177 ----- CPU =     18.8689 (sec) ----------------
TotEng   =        -3.6358 KinEng   =         0.0000 Temp     =         0.0000 
PotEng   =        -3.6358 E_bond   =         0.0000 E_angle  =         0.0000 
E_dihed  =         0.0000 E_impro  =         0.0000 E_vdwl   =         0.7108 
E_coul   =        33.2308 E_long   =       -37.5775 Press    = 2882231995.0333 
---------------- Step      178 ----- CPU =     18.8993 (sec) ----------------
TotEng   =        -3.5945 KinEng   =         0.0000 Temp     =         0.0000 
PotEng   =        -3.5945 E_bond   =         0.0000 E_angle  =         0.0000 
E_dihed  =         0.0000 E_impro  =         0.0000 E_vdwl   =         0.6953 
E_coul   =        33.2958 E_long   =       -37.5856 Press    = 2847123327.4117 
---------------- Step      179 ----- CPU =     18.9298 (sec) ----------------
TotEng   =        -3.4922 KinEng   =         0.0000 Temp     =         0.0000 
PotEng   =        -3.4922 E_bond   =         0.0000 E_angle  =         0.0000 
E_dihed  =         0.0000 E_impro  =         0.0000 E_vdwl   =         0.7046 
E_coul   =        33.3766 E_long   =       -37.5734 Press    = 2896780285.1517 
---------------- Step      180 ----- CPU =     18.9595 (sec) ----------------
TotEng   =        -3.5588 KinEng   =         0.0000 Temp     =         0.0000 
PotEng   =        -3.5588 E_bond   =         0.0000 E_angle  =         0.0000 
E_dihed  =         0.0000 E_impro  =         0.0000 E_vdwl   =         0.6977 
E_coul   =        33.3248 E_long   =       -37.5813 Press    = 2864009899.5362 
---------------- Step      181 ----- CPU =     19.1878 (sec) ----------------
TotEng   =        -3.7070 KinEng   =         0.0000 Temp     =         0.0000 
PotEng   =        -3.7070 E_bond   =         0.0000 E_angle  =         0.0000 
E_dihed  =         0.0000 E_impro  =         0.0000 E_vdwl   =         0.6878 
E_coul   =        33.1830 E_long   =       -37.5777 Press    = 2803909655.1241 
---------------- Step      182 ----- CPU =     19.2127 (sec) ----------------
TotEng   =        -3.7081 KinEng   =         0.0000 Temp     =         0.0000 
PotEng   =        -3.7081 E_bond   =         0.0000 E_angle  =         0.0000 
E_dihed  =         0.0000 E_impro  =         0.0000 E_vdwl   =         0.6880 
E_coul   =        33.1877 E_long   =       -37.5838 Press    = 2801985230.3381 
---------------- Step      183 ----- CPU =     19.2372 (sec) ----------------
TotEng   =        -3.6309 KinEng   =         0.0000 Temp     =         0.0000 
PotEng   =        -3.6309 E_bond   =         0.0000 E_angle  =         0.0000 
E_dihed  =         0.0000 E_impro  =         0.0000 E_vdwl   =         0.6937 
E_coul   =        33.2450 E_long   =       -37.5696 Press    = 2836161885.5976 
---------------- Step      184 ----- CPU =     19.2621 (sec) ----------------
TotEng   =        -3.6897 KinEng   =         0.0000 Temp     =         0.0000 
PotEng   =        -3.6897 E_bond   =         0.0000 E_angle  =         0.0000 
E_dihed  =         0.0000 E_impro  =         0.0000 E_vdwl   =         0.6990 
E_coul   =        33.1887 E_long   =       -37.5774 Press    = 2838388037.1366 
---------------- Step      185 ----- CPU =     19.4889 (sec) ----------------
TotEng   =        -3.6796 KinEng   =         0.0000 Temp     =         0.0000 
PotEng   =        -3.6796 E_bond   =         0.0000 E_angle  =         0.0000 
E_dihed  =         0.0000 E_impro  =         0.0000 E_vdwl   =         0.6894 
E_coul   =        33.2088 E_long   =       -37.5778 Press    = 2814281917.9585 
---------------- Step      186 ----- CPU =     19.5200 (sec) ----------------
TotEng   =        -3.7496 KinEng   =         0.0000 Temp     =         0.0000 
PotEng   =        -3.7496 E_bond   =         0.0000 E_angle  =         0.0000 
E_dihed  =         0.0000 E_impro  =         0.0000 E_vdwl   =         0.6828 
E_coul   =        33.1492 E_long   =       -37.5816 Press    = 2778703163.1597 
---------------- Step      187 ----- CPU =     19.5472 (sec) ----------------
TotEng   =        -3.7374 KinEng   =         0.0000 Temp     =         0.0000 
PotEng   =        -3.7374 E_bond   =         0.0000 E_angle  =         0.0000 
E_dihed  =         0.0000 E_impro  =         0.0000 E_vdwl   =         0.6866 
E_coul   =        33.1478 E_long   =       -37.5718 Press    = 2792526103.5459 
---------------- Step      188 ----- CPU =     19.5783 (sec) ----------------
TotEng   =        -3.7534 KinEng   =         0.0000 Temp     =         0.0000 
PotEng   =        -3.7534 E_bond   =         0.0000 E_angle  =         0.0000 
E_dihed  =         0.0000 E_impro  =         0.0000 E_vdwl   =         0.6817 
E_coul   =        33.1410 E_long   =       -37.5761 Press    = 2776451003.2628 
---------------- Step      189 ----- CPU =     19.8217 (sec) ----------------
TotEng   =        -3.6402 KinEng   =         0.0000 Temp     =         0.0000 
PotEng   =        -3.6402 E_bond   =         0.0000 E_angle  =         0.0000 
E_dihed  =         0.0000 E_impro  =         0.0000 E_vdwl   =         0.6823 
E_coul   =        33.2554 E_long   =       -37.5779 Press    = 2802705770.9203 
---------------- Step      190 ----- CPU =     19.8492 (sec) ----------------
TotEng   =        -3.6745 KinEng   =         0.0000 Temp     =         0.0000 
PotEng   =        -3.6745 E_bond   =         0.0000 E_angle  =         0.0000 
E_dihed  =         0.0000 E_impro  =         0.0000 E_vdwl   =         0.6821 
E_coul   =        33.2235 E_long   =       -37.5801 Press    = 2793865104.6499 
---------------- Step      191 ----- CPU =     19.8802 (sec) ----------------
TotEng   =        -3.7151 KinEng   =         0.0000 Temp     =         0.0000 
PotEng   =        -3.7151 E_bond   =         0.0000 E_angle  =         0.0000 
E_dihed  =         0.0000 E_impro  =         0.0000 E_vdwl   =         0.6827 
E_coul   =        33.1797 E_long   =       -37.5775 Press    = 2786777832.1576 
---------------- Step      192 ----- CPU =     19.9077 (sec) ----------------
TotEng   =        -3.6094 KinEng   =         0.0000 Temp     =         0.0000 
PotEng   =        -3.6094 E_bond   =         0.0000 E_angle  =         0.0000 
E_dihed  =         0.0000 E_impro  =         0.0000 E_vdwl   =         0.6840 
E_coul   =        33.2858 E_long   =       -37.5792 Press    = 2815084356.0799 
---------------- Step      193 ----- CPU =     20.1415 (sec) ----------------
TotEng   =        -3.5287 KinEng   =         0.0000 Temp     =         0.0000 
PotEng   =        -3.5287 E_bond   =         0.0000 E_angle  =         0.0000 
E_dihed  =         0.0000 E_impro  =         0.0000 E_vdwl   =         0.6828 
E_coul   =        33.3708 E_long   =       -37.5823 Press    = 2828971128.8612 
---------------- Step      194 ----- CPU =     20.1720 (sec) ----------------
TotEng   =        -3.5222 KinEng   =         0.0000 Temp     =         0.0000 
PotEng   =        -3.5222 E_bond   =         0.0000 E_angle  =         0.0000 
E_dihed  =         0.0000 E_impro  =         0.0000 E_vdwl   =         0.6874 
E_coul   =        33.3689 E_long   =       -37.5785 Press    = 2842812541.0431 
---------------- Step      195 ----- CPU =     20.2028 (sec) ----------------
TotEng   =        -3.5868 KinEng   =         0.0000 Temp     =         0.0000 
PotEng   =        -3.5868 E_bond   =         0.0000 E_angle  =         0.0000 
E_dihed  =         0.0000 E_impro  =         0.0000 E_vdwl   =         0.6813 
E_coul   =        33.3134 E_long   =       -37.5815 Press    = 2811543080.1232 
---------------- Step      196 ----- CPU =     20.2330 (sec) ----------------
TotEng   =        -3.4579 KinEng   =         0.0000 Temp     =         0.0000 
PotEng   =        -3.4579 E_bond   =         0.0000 E_angle  =         0.0000 
E_dihed  =         0.0000 E_impro  =         0.0000 E_vdwl   =         0.6895 
E_coul   =        33.4325 E_long   =       -37.5798 Press    = 2861846190.4997 
---------------- Step      197 ----- CPU =     20.4862 (sec) ----------------
TotEng   =        -3.3636 KinEng   =         0.0000 Temp     =         0.0000 
PotEng   =        -3.3636 E_bond   =         0.0000 E_angle  =         0.0000 
E_dihed  =         0.0000 E_impro  =         0.0000 E_vdwl   =         0.7002 
E_coul   =        33.5155 E_long   =       -37.5793 Press    = 2911116906.4972 
---------------- Step      198 ----- CPU =     20.5114 (sec) ----------------
TotEng   =        -3.4057 KinEng   =         0.0000 Temp     =         0.0000 
PotEng   =        -3.4057 E_bond   =         0.0000 E_angle  =         0.0000 
[...]
E_dihed  =         0.0000 E_impro  =         0.0000 E_vdwl   =         0.0000 
E_coul   =         0.0000 E_long   =         0.0000 Press    = -2534857890.0736 
---------------- Step     4755 ----- CPU =    103.3671 (sec) ----------------
TotEng   =         1.5053 KinEng   =         0.0000 Temp     =         0.0000 
PotEng   =         1.5053 E_bond   =         1.1540 E_angle  =         0.3514 
E_dihed  =         0.0000 E_impro  =         0.0000 E_vdwl   =         0.0000 
E_coul   =         0.0000 E_long   =         0.0000 Press    = -2895867604.1116 
---------------- Step     4756 ----- CPU =    103.3789 (sec) ----------------
TotEng   =         1.3509 KinEng   =         0.0000 Temp     =         0.0000 
PotEng   =         1.3509 E_bond   =         0.9833 E_angle  =         0.3676 
E_dihed  =         0.0000 E_impro  =         0.0000 E_vdwl   =         0.0000 
E_coul   =         0.0000 E_long   =         0.0000 Press    = -3173727897.4720 
---------------- Step     4757 ----- CPU =    103.5425 (sec) ----------------
TotEng   =         1.3991 KinEng   =         0.0000 Temp     =         0.0000 
PotEng   =         1.3991 E_bond   =         1.0381 E_angle  =         0.3610 
E_dihed  =         0.0000 E_impro  =         0.0000 E_vdwl   =         0.0000 
E_coul   =         0.0000 E_long   =         0.0000 Press    = -3577573429.7479 
---------------- Step     4758 ----- CPU =    103.5544 (sec) ----------------
TotEng   =         1.4263 KinEng   =         0.0000 Temp     =         0.0000 
PotEng   =         1.4263 E_bond   =         1.0667 E_angle  =         0.3596 
E_dihed  =         0.0000 E_impro  =         0.0000 E_vdwl   =         0.0000 
E_coul   =         0.0000 E_long   =         0.0000 Press    = -2631906371.8594 
---------------- Step     4759 ----- CPU =    103.5653 (sec) ----------------
TotEng   =         1.5155 KinEng   =         0.0000 Temp     =         0.0000 
PotEng   =         1.5155 E_bond   =         1.1647 E_angle  =         0.3508 
E_dihed  =         0.0000 E_impro  =         0.0000 E_vdwl   =         0.0000 
E_coul   =         0.0000 E_long   =         0.0000 Press    = -3148455313.2675 
---------------- Step     4760 ----- CPU =    103.5779 (sec) ----------------
TotEng   =         1.4493 KinEng   =         0.0000 Temp     =         0.0000 
PotEng   =         1.4493 E_bond   =         1.0921 E_angle  =         0.3572 
E_dihed  =         0.0000 E_impro  =         0.0000 E_vdwl   =         0.0000 
E_coul   =         0.0000 E_long   =         0.0000 Press    = -3342860464.0523 
---------------- Step     4761 ----- CPU =    103.5886 (sec) ----------------
TotEng   =         1.4587 KinEng   =         0.0000 Temp     =         0.0000 
PotEng   =         1.4587 E_bond   =         1.0863 E_angle  =         0.3723 
E_dihed  =         0.0000 E_impro  =         0.0000 E_vdwl   =         0.0000 
E_coul   =         0.0000 E_long   =         0.0000 Press    = -3453325312.3119 
---------------- Step     4762 ----- CPU =    103.5996 (sec) ----------------
TotEng   =         1.3859 KinEng   =         0.0000 Temp     =         0.0000 
PotEng   =         1.3859 E_bond   =         1.0358 E_angle  =         0.3502 
E_dihed  =         0.0000 E_impro  =         0.0000 E_vdwl   =         0.0000 
E_coul   =         0.0000 E_long   =         0.0000 Press    = -2626632721.7917 
---------------- Step     4763 ----- CPU =    103.6117 (sec) ----------------
TotEng   =         1.5062 KinEng   =         0.0000 Temp     =         0.0000 
PotEng   =         1.5062 E_bond   =         1.1572 E_angle  =         0.3490 
E_dihed  =         0.0000 E_impro  =         0.0000 E_vdwl   =         0.0000 
E_coul   =         0.0000 E_long   =         0.0000 Press    = -3248917976.8319 
---------------- Step     4764 ----- CPU =    103.6238 (sec) ----------------
TotEng   =         1.4290 KinEng   =         0.0000 Temp     =         0.0000 
PotEng   =         1.4290 E_bond   =         1.0763 E_angle  =         0.3527 
E_dihed  =         0.0000 E_impro  =         0.0000 E_vdwl   =         0.0000 
E_coul   =         0.0000 E_long   =         0.0000 Press    = -3787795980.8352 
---------------- Step     4765 ----- CPU =    103.6456 (sec) ----------------
TotEng   =         1.4306 KinEng   =         0.0000 Temp     =         0.0000 
PotEng   =         1.4306 E_bond   =         1.0875 E_angle  =         0.3431 
E_dihed  =         0.0000 E_impro  =         0.0000 E_vdwl   =         0.0000 
E_coul   =         0.0000 E_long   =         0.0000 Press    = -3799587668.9902 
---------------- Step     4766 ----- CPU =    103.6564 (sec) ----------------
TotEng   =         1.3308 KinEng   =         0.0000 Temp     =         0.0000 
PotEng   =         1.3308 E_bond   =         0.9896 E_angle  =         0.3412 
E_dihed  =         0.0000 E_impro  =         0.0000 E_vdwl   =         0.0000 
E_coul   =         0.0000 E_long   =         0.0000 Press    = -2512702120.3443 
---------------- Step     4767 ----- CPU =    103.6670 (sec) ----------------
TotEng   =         1.4841 KinEng   =         0.0000 Temp     =         0.0000 
PotEng   =         1.4841 E_bond   =         1.1377 E_angle  =         0.3465 
E_dihed  =         0.0000 E_impro  =         0.0000 E_vdwl   =         0.0000 
E_coul   =         0.0000 E_long   =         0.0000 Press    = -3183059057.3571 
---------------- Step     4768 ----- CPU =    103.6777 (sec) ----------------
TotEng   =         1.4609 KinEng   =         0.0000 Temp     =         0.0000 
PotEng   =         1.4609 E_bond   =         1.0752 E_angle  =         0.3857 
E_dihed  =         0.0000 E_impro  =         0.0000 E_vdwl   =         0.0000 
E_coul   =         0.0000 E_long   =         0.0000 Press    = -3376015109.4664 
---------------- Step     4769 ----- CPU =    103.6983 (sec) ----------------
TotEng   =         1.4567 KinEng   =         0.0000 Temp     =         0.0000 
PotEng   =         1.4567 E_bond   =         1.0603 E_angle  =         0.3964 
E_dihed  =         0.0000 E_impro  =         0.0000 E_vdwl   =         0.0000 
E_coul   =         0.0000 E_long   =         0.0000 Press    = -3113200812.4233 
---------------- Step     4770 ----- CPU =    103.7091 (sec) ----------------
TotEng   =         1.2723 KinEng   =         0.0000 Temp     =         0.0000 
PotEng   =         1.2723 E_bond   =         0.9390 E_angle  =         0.3333 
E_dihed  =         0.0000 E_impro  =         0.0000 E_vdwl   =         0.0000 
E_coul   =         0.0000 E_long   =         0.0000 Press    = -2287416015.2411 
---------------- Step     4771 ----- CPU =    103.7197 (sec) ----------------
TotEng   =         1.4550 KinEng   =         0.0000 Temp     =         0.0000 
PotEng   =         1.4550 E_bond   =         1.1118 E_angle  =         0.3432 
E_dihed  =         0.0000 E_impro  =         0.0000 E_vdwl   =         0.0000 
E_coul   =         0.0000 E_long   =         0.0000 Press    = -2949885548.9976 
---------------- Step     4772 ----- CPU =    103.7303 (sec) ----------------
TotEng   =         1.4001 KinEng   =         0.0000 Temp     =         0.0000 
PotEng   =         1.4001 E_bond   =         1.0676 E_angle  =         0.3324 
E_dihed  =         0.0000 E_impro  =         0.0000 E_vdwl   =         0.0000 
E_coul   =         0.0000 E_long   =         0.0000 Press    = -3615577023.5150 
---------------- Step     4773 ----- CPU =    103.8922 (sec) ----------------
TotEng   =         1.4170 KinEng   =         0.0000 Temp     =         0.0000 
PotEng   =         1.4170 E_bond   =         1.0930 E_angle  =         0.3240 
E_dihed  =         0.0000 E_impro  =         0.0000 E_vdwl   =         0.0000 
E_coul   =         0.0000 E_long   =         0.0000 Press    = -3898909618.7529 
---------------- Step     4774 ----- CPU =    103.9028 (sec) ----------------
TotEng   =         1.2781 KinEng   =         0.0000 Temp     =         0.0000 
PotEng   =         1.2781 E_bond   =         0.9470 E_angle  =         0.3311 
E_dihed  =         0.0000 E_impro  =         0.0000 E_vdwl   =         0.0000 
E_coul   =         0.0000 E_long   =         0.0000 Press    = -2628526098.4436 
---------------- Step     4775 ----- CPU =    103.9134 (sec) ----------------
TotEng   =         1.4877 KinEng   =         0.0000 Temp     =         0.0000 
PotEng   =         1.4877 E_bond   =         1.1437 E_angle  =         0.3440 
E_dihed  =         0.0000 E_impro  =         0.0000 E_vdwl   =         0.0000 
E_coul   =         0.0000 E_long   =         0.0000 Press    = -3213275545.0476 
---------------- Step     4776 ----- CPU =    103.9241 (sec) ----------------
TotEng   =         1.5178 KinEng   =         0.0000 Temp     =         0.0000 
PotEng   =         1.5178 E_bond   =         1.1107 E_angle  =         0.4071 
E_dihed  =         0.0000 E_impro  =         0.0000 E_vdwl   =         0.0000 
E_coul   =         0.0000 E_long   =         0.0000 Press    = -3343398003.6898 
---------------- Step     4777 ----- CPU =    103.9347 (sec) ----------------
TotEng   =         1.5607 KinEng   =         0.0000 Temp     =         0.0000 
PotEng   =         1.5607 E_bond   =         1.1470 E_angle  =         0.4137 
E_dihed  =         0.0000 E_impro  =         0.0000 E_vdwl   =         0.0000 
E_coul   =         0.0000 E_long   =         0.0000 Press    = -3399718466.0866 
---------------- Step     4778 ----- CPU =    103.9454 (sec) ----------------
TotEng   =         1.2972 KinEng   =         0.0000 Temp     =         0.0000 
PotEng   =         1.2972 E_bond   =         0.9667 E_angle  =         0.3304 
E_dihed  =         0.0000 E_impro  =         0.0000 E_vdwl   =         0.0000 
E_coul   =         0.0000 E_long   =         0.0000 Press    = -2829900681.2530 
---------------- Step     4779 ----- CPU =    103.9561 (sec) ----------------
TotEng   =         1.5054 KinEng   =         0.0000 Temp     =         0.0000 
PotEng   =         1.5054 E_bond   =         1.1608 E_angle  =         0.3446 
E_dihed  =         0.0000 E_impro  =         0.0000 E_vdwl   =         0.0000 
E_coul   =         0.0000 E_long   =         0.0000 Press    = -3313017742.3337 
---------------- Step     4780 ----- CPU =    103.9671 (sec) ----------------
TotEng   =         1.4033 KinEng   =         0.0000 Temp     =         0.0000 
PotEng   =         1.4033 E_bond   =         1.0879 E_angle  =         0.3153 
E_dihed  =         0.0000 E_impro  =         0.0000 E_vdwl   =         0.0000 
E_coul   =         0.0000 E_long   =         0.0000 Press    = -3977957682.7549 
---------------- Step     4781 ----- CPU =    103.9883 (sec) ----------------
TotEng   =         1.3648 KinEng   =         0.0000 Temp     =         0.0000 
PotEng   =         1.3648 E_bond   =         1.0581 E_angle  =         0.3067 
E_dihed  =         0.0000 E_impro  =         0.0000 E_vdwl   =         0.0000 
E_coul   =         0.0000 E_long   =         0.0000 Press    = -3842075452.5312 
---------------- Step     4782 ----- CPU =    103.9991 (sec) ----------------
TotEng   =         1.3260 KinEng   =         0.0000 Temp     =         0.0000 
PotEng   =         1.3260 E_bond   =         0.9947 E_angle  =         0.3312 
E_dihed  =         0.0000 E_impro  =         0.0000 E_vdwl   =         0.0000 
E_coul   =         0.0000 E_long   =         0.0000 Press    = -2879016983.4376 
---------------- Step     4783 ----- CPU =    104.0104 (sec) ----------------
TotEng   =         1.4994 KinEng   =         0.0000 Temp     =         0.0000 
PotEng   =         1.4994 E_bond   =         1.1545 E_angle  =         0.3449 
E_dihed  =         0.0000 E_impro  =         0.0000 E_vdwl   =         0.0000 
E_coul   =         0.0000 E_long   =         0.0000 Press    = -3248619722.2863 
---------------- Step     4784 ----- CPU =    104.0212 (sec) ----------------
TotEng   =         1.5786 KinEng   =         0.0000 Temp     =         0.0000 
PotEng   =         1.5786 E_bond   =         1.1628 E_angle  =         0.4158 
E_dihed  =         0.0000 E_impro  =         0.0000 E_vdwl   =         0.0000 
E_coul   =         0.0000 E_long   =         0.0000 Press    = -3286851480.8143 
---------------- Step     4785 ----- CPU =    104.0319 (sec) ----------------
TotEng   =         1.5700 KinEng   =         0.0000 Temp     =         0.0000 
PotEng   =         1.5700 E_bond   =         1.1566 E_angle  =         0.4134 
E_dihed  =         0.0000 E_impro  =         0.0000 E_vdwl   =         0.0000 
E_coul   =         0.0000 E_long   =         0.0000 Press    = -3016732009.4018 
---------------- Step     4786 ----- CPU =    104.0427 (sec) ----------------
TotEng   =         1.3582 KinEng   =         0.0000 Temp     =         0.0000 
PotEng   =         1.3582 E_bond   =         1.0249 E_angle  =         0.3334 
E_dihed  =         0.0000 E_impro  =         0.0000 E_vdwl   =         0.0000 
E_coul   =         0.0000 E_long   =         0.0000 Press    = -2777412409.6909 
---------------- Step     4787 ----- CPU =    104.0534 (sec) ----------------
TotEng   =         1.4706 KinEng   =         0.0000 Temp     =         0.0000 
PotEng   =         1.4706 E_bond   =         1.1258 E_angle  =         0.3448 
E_dihed  =         0.0000 E_impro  =         0.0000 E_vdwl   =         0.0000 
E_coul   =         0.0000 E_long   =         0.0000 Press    = -3024008837.6941 
---------------- Step     4788 ----- CPU =    104.0642 (sec) ----------------
TotEng   =         1.3118 KinEng   =         0.0000 Temp     =         0.0000 
PotEng   =         1.3118 E_bond   =         1.0133 E_angle  =         0.2986 
E_dihed  =         0.0000 E_impro  =         0.0000 E_vdwl   =         0.0000 
E_coul   =         0.0000 E_long   =         0.0000 Press    = -3492720191.0698 
---------------- Step     4789 ----- CPU =    104.2162 (sec) ----------------
TotEng   =         1.3221 KinEng   =         0.0000 Temp     =         0.0000 
PotEng   =         1.3221 E_bond   =         1.0279 E_angle  =         0.2941 
E_dihed  =         0.0000 E_impro  =         0.0000 E_vdwl   =         0.0000 
E_coul   =         0.0000 E_long   =         0.0000 Press    = -3608450409.8729 
---------------- Step     4790 ----- CPU =    104.2268 (sec) ----------------
TotEng   =         1.4578 KinEng   =         0.0000 Temp     =         0.0000 
PotEng   =         1.4578 E_bond   =         1.1172 E_angle  =         0.3406 
E_dihed  =         0.0000 E_impro  =         0.0000 E_vdwl   =         0.0000 
E_coul   =         0.0000 E_long   =         0.0000 Press    = -3204577236.5610 
---------------- Step     4791 ----- CPU =    104.2373 (sec) ----------------
TotEng   =         1.4997 KinEng   =         0.0000 Temp     =         0.0000 
PotEng   =         1.4997 E_bond   =         1.1507 E_angle  =         0.3490 
E_dihed  =         0.0000 E_impro  =         0.0000 E_vdwl   =         0.0000 
E_coul   =         0.0000 E_long   =         0.0000 Press    = -3298699505.1258 
---------------- Step     4792 ----- CPU =    104.2479 (sec) ----------------
TotEng   =         1.6068 KinEng   =         0.0000 Temp     =         0.0000 
PotEng   =         1.6068 E_bond   =         1.1969 E_angle  =         0.4099 
E_dihed  =         0.0000 E_impro  =         0.0000 E_vdwl   =         0.0000 
E_coul   =         0.0000 E_long   =         0.0000 Press    = -3272235933.3514 
---------------- Step     4793 ----- CPU =    104.2685 (sec) ----------------
TotEng   =         1.6090 KinEng   =         0.0000 Temp     =         0.0000 
PotEng   =         1.6090 E_bond   =         1.2064 E_angle  =         0.4026 
E_dihed  =         0.0000 E_impro  =         0.0000 E_vdwl   =         0.0000 
E_coul   =         0.0000 E_long   =         0.0000 Press    = -3378081126.6547 
---------------- Step     4794 ----- CPU =    104.2791 (sec) ----------------
TotEng   =         1.5361 KinEng   =         0.0000 Temp     =         0.0000 
PotEng   =         1.5361 E_bond   =         1.1879 E_angle  =         0.3482 
E_dihed  =         0.0000 E_impro  =         0.0000 E_vdwl   =         0.0000 
E_coul   =         0.0000 E_long   =         0.0000 Press    = -3476380094.9970 
---------------- Step     4795 ----- CPU =    104.2899 (sec) ----------------
TotEng   =         1.5183 KinEng   =         0.0000 Temp     =         0.0000 
PotEng   =         1.5183 E_bond   =         1.1656 E_angle  =         0.3528 
E_dihed  =         0.0000 E_impro  =         0.0000 E_vdwl   =         0.0000 
E_coul   =         0.0000 E_long   =         0.0000 Press    = -3403384137.5679 
---------------- Step     4796 ----- CPU =    104.3020 (sec) ----------------
TotEng   =         1.3173 KinEng   =         0.0000 Temp     =         0.0000 
PotEng   =         1.3173 E_bond   =         1.0264 E_angle  =         0.2908 
E_dihed  =         0.0000 E_impro  =         0.0000 E_vdwl   =         0.0000 
E_coul   =         0.0000 E_long   =         0.0000 Press    = -3531383443.4556 
---------------- Step     4797 ----- CPU =    104.3233 (sec) ----------------
TotEng   =         1.2921 KinEng   =         0.0000 Temp     =         0.0000 
PotEng   =         1.2921 E_bond   =         1.0033 E_angle  =         0.2887 
E_dihed  =         0.0000 E_impro  =         0.0000 E_vdwl   =         0.0000 
E_coul   =         0.0000 E_long   =         0.0000 Press    = -3272591003.5359 
---------------- Step     4798 ----- CPU =    104.3341 (sec) ----------------
TotEng   =         1.5755 KinEng   =         0.0000 Temp     =         0.0000 
PotEng   =         1.5755 E_bond   =         1.2198 E_angle  =         0.3557 
E_dihed  =         0.0000 E_impro  =         0.0000 E_vdwl   =         0.0000 
E_coul   =         0.0000 E_long   =         0.0000 Press    = -3587746649.3561 
---------------- Step     4799 ----- CPU =    104.3453 (sec) ----------------
TotEng   =         1.5241 KinEng   =         0.0000 Temp     =         0.0000 
PotEng   =         1.5241 E_bond   =         1.1683 E_angle  =         0.3558 
E_dihed  =         0.0000 E_impro  =         0.0000 E_vdwl   =         0.0000 
E_coul   =         0.0000 E_long   =         0.0000 Press    = -3333422146.3807 
---------------- Step     4800 ----- CPU =    104.3562 (sec) ----------------
TotEng   =         1.5743 KinEng   =         0.0000 Temp     =         0.0000 
PotEng   =         1.5743 E_bond   =         1.1825 E_angle  =         0.3918 
E_dihed  =         0.0000 E_impro  =         0.0000 E_vdwl   =         0.0000 
E_coul   =         0.0000 E_long   =         0.0000 Press    = -3325637941.5103 
---------------- Step     4801 ----- CPU =    104.3666 (sec) ----------------
TotEng   =         1.5096 KinEng   =         0.0000 Temp     =         0.0000 
PotEng   =         1.5096 E_bond   =         1.1313 E_angle  =         0.3783 
E_dihed  =         0.0000 E_impro  =         0.0000 E_vdwl   =         0.0000 
E_coul   =         0.0000 E_long   =         0.0000 Press    = -3110883566.2173 
---------------- Step     4802 ----- CPU =    104.3774 (sec) ----------------
TotEng   =         1.5686 KinEng   =         0.0000 Temp     =         0.0000 
PotEng   =         1.5686 E_bond   =         1.2062 E_angle  =         0.3624 
E_dihed  =         0.0000 E_impro  =         0.0000 E_vdwl   =         0.0000 
E_coul   =         0.0000 E_long   =         0.0000 Press    = -3535716613.8235 
---------------- Step     4803 ----- CPU =    104.3895 (sec) ----------------
TotEng   =         1.5132 KinEng   =         0.0000 Temp     =         0.0000 
PotEng   =         1.5132 E_bond   =         1.1549 E_angle  =         0.3583 
E_dihed  =         0.0000 E_impro  =         0.0000 E_vdwl   =         0.0000 
E_coul   =         0.0000 E_long   =         0.0000 Press    = -3097564459.4833 
---------------- Step     4804 ----- CPU =    104.4017 (sec) ----------------
TotEng   =         1.2478 KinEng   =         0.0000 Temp     =         0.0000 
PotEng   =         1.2478 E_bond   =         0.9599 E_angle  =         0.2879 
E_dihed  =         0.0000 E_impro  =         0.0000 E_vdwl   =         0.0000 
E_coul   =         0.0000 E_long   =         0.0000 Press    = -2850371656.9194 
