648
# CELL(abcABC):   35.23300    35.23300    35.23300    90.00000    90.00000    90.00000  Traj: positions Step:           0  Bead:       1 
       O  3.84600e+00  5.67200e+00  1.32300e+00
       H  2.97900e+00  7.05400e+00  8.57000e-01
       H  5.52500e+00  5.69700e+00  4.51000e-01
       O  3.45570e+01  3.43410e+01  3.07800e+00
       H  3.37220e+01  3.46890e+01  4.84000e+00
       H  3.60290e+01  3.32200e+01  3.71100e+00
       O  5.59100e+00  1.96300e+00  1.34770e+01
       H  7.26500e+00  1.86400e+00  1.38510e+01
       H  5.00900e+00  3.55500e+00  1.39160e+01
       O  1.06000e+00  2.06100e+00  2.17180e+01
       H  7.57000e-01  2.61000e-01  2.18200e+01
       H  2.13000e-01  3.01300e+00  2.30470e+01
       O  1.20000e+00  1.33700e+00  2.90060e+01
       H  8.18000e-01  1.88400e+00  3.07320e+01
       H  2.88300e+00  1.82500e+00  2.90110e+01
       O  1.33100e+00  1.38600e+00  3.43060e+01
       H  2.39200e+00  2.89800e+00  3.48460e+01
       H  8.14000e-01  5.32000e-01  3.58360e+01
       O  3.14510e+01  1.02010e+01  7.26000e-01
       H  3.22820e+01  1.08770e+01 -7.50000e-01
       H  3.09200e+01  1.15940e+01  1.67700e+00
       O  8.36000e-01  1.08080e+01  4.29800e+00
       H  3.05000e-01  1.06430e+01  2.79300e+00
       H -3.56000e-01  1.03340e+01  5.52400e+00
       O  3.43810e+01  5.97900e+00  9.19400e+00
       H  3.36160e+01  7.67300e+00  8.85700e+00
       H  3.51150e+01  5.26000e+00  7.61800e+00
       O  3.32120e+01  6.48000e+00  2.42780e+01
       H  3.16240e+01  6.90800e+00  2.35210e+01
       H  3.25440e+01  4.99000e+00  2.49820e+01
       O  1.99200e+00  9.00200e+00  2.68630e+01
       H  1.85600e+00  1.01750e+01  2.55790e+01
       H  5.19000e-01  8.09900e+00  2.63860e+01
       O  2.05400e+00  8.66000e+00  3.25150e+01
       H  2.16700e+00  8.72700e+00  3.04940e+01
       H  2.37400e+00  1.05130e+01  3.30380e+01
       O  3.40200e+00  1.66390e+01  3.00800e+00
       H  4.12700e+00  1.58720e+01  4.44600e+00
       H  2.90500e+00  1.83390e+01  3.16000e+00
       O  4.22200e+00  1.54440e+01  8.07200e+00
       H  5.21100e+00  1.67560e+01  8.29900e+00
       H  2.56000e+00  1.54920e+01  8.86000e+00
       O  2.83100e+00  9.24600e+00  1.64880e+01
       H  2.86900e+00  8.02300e+00  1.80500e+01
       H  3.96000e+00  8.46700e+00  1.51540e+01
       O  5.56300e+00  6.00300e+00  2.09070e+01
       H  4.65300e+00  4.63800e+00  2.14800e+01
       H  6.40500e+00  6.20800e+00  2.25290e+01
       O  2.08700e+00  1.33700e+01  2.29130e+01
       H  2.83200e+00  1.48040e+01  2.34220e+01
       H  1.43400e+00  1.35090e+01  2.11960e+01
       O  3.36900e+00  1.78860e+01  2.51090e+01
       H  3.65500e+00  1.72000e+01  2.67660e+01
       H  4.77200e+00  1.89770e+01  2.45000e+01
       O  3.47640e+01  2.08030e+01  9.48000e-01
       H  3.52100e+01  2.12670e+01  2.81600e+00
       H  3.59620e+01  2.17260e+01  1.31000e-01
       O  2.83600e+00  2.41780e+01  1.52290e+01
       H  2.79500e+00  2.23460e+01  1.48760e+01
       H  2.41400e+00  2.41150e+01  1.71300e+01
       O  3.30000e+01  2.44810e+01  1.52300e+01
       H  3.46400e+01  2.48040e+01  1.50130e+01
       H  3.24010e+01  2.57640e+01  1.42950e+01
       O  4.04000e-01  2.67790e+01  2.34000e+01
       H  1.35300e+00  2.72480e+01  2.49870e+01
       H  1.54600e+00  2.80500e+01  2.23170e+01
       O  3.42220e+01  2.13800e+01  2.54180e+01
       H  3.56690e+01  2.01510e+01  2.53170e+01
       H  3.29600e+01  2.11800e+01  2.39920e+01
       O  3.32590e+01  1.74380e+01  3.24800e+01
       H  3.33140e+01  1.87820e+01  3.38830e+01
       H  3.27430e+01  1.81810e+01  3.08710e+01
       O  4.46300e+00  2.19790e+01  3.93600e+00
       H  5.85600e+00  2.30840e+01  3.40000e+00
       H  3.98600e+00  2.21800e+01  5.60200e+00
       O  6.25800e+00  2.58510e+01  8.52000e+00
       H  5.76700e+00  2.76930e+01  8.47600e+00
       H  7.20200e+00  2.55060e+01  1.01860e+01
       O  6.01000e-01  2.97370e+01  1.27470e+01
       H -6.85000e-01  3.08420e+01  1.23500e+01
       H  1.33600e+00  3.07160e+01  1.40310e+01
       O  7.56300e+00  2.81910e+01  2.43330e+01
       H  9.20100e+00  2.88280e+01  2.46840e+01
       H  7.38100e+00  2.76210e+01  2.27990e+01
       O  3.65300e+00  2.71090e+01  2.77720e+01
       H  5.12600e+00  2.70150e+01  2.67720e+01
       H  3.03100e+00  2.87560e+01  2.76980e+01
       O  2.59600e+00  2.39910e+01  3.24760e+01
       H  2.87900e+00  2.47910e+01  3.08590e+01
       H  4.00300e+00  2.29130e+01  3.27010e+01
       O  3.08300e+00  3.13170e+01  3.64400e+00
       H  4.13300e+00  3.05890e+01  2.53900e+00
       H  4.21800e+00  3.21730e+01  5.03700e+00
       O  4.66100e+00  3.05550e+01  9.36800e+00
       H  3.18400e+00  2.98430e+01  1.01320e+01
       H  4.35800e+00  3.24480e+01  9.12600e+00
       O  3.46500e+00  3.25370e+01  1.57780e+01
       H  5.07200e+00  3.18190e+01  1.59030e+01
       H  4.05500e+00  3.42570e+01  1.52840e+01
       O  4.21500e+00  2.91530e+01  2.03170e+01
       H  3.65800e+00  3.01760e+01  1.88420e+01
       H  4.95900e+00  3.02910e+01  2.14490e+01
       O  1.12600e+00  3.13330e+01  2.87680e+01
       H  2.39500e+00  3.11240e+01  2.99250e+01
       H  7.68000e-01  3.30920e+01  2.88980e+01
       O  4.88100e+00  3.26160e+01  3.23020e+01
       H  6.58800e+00  3.29110e+01  3.17250e+01
       H  4.48600e+00  3.40370e+01  3.32490e+01
       O  8.96200e+00  5.55600e+00  1.51000e-01
       H  9.65200e+00  6.99100e+00  8.59000e-01
       H  9.17300e+00  4.47700e+00  1.64500e+00
       O  1.83300e+00  3.51800e+00  5.67900e+00
       H  2.88900e+00  2.73100e+00  6.78800e+00
       H  2.78900e+00  4.18700e+00  4.14700e+00
       O  1.05100e+01  3.47260e+01  1.30730e+01
       H  1.19200e+01  3.41180e+01  1.19190e+01
       H  1.12950e+01  3.49680e+01  1.47410e+01
       O  7.21200e+00  4.20000e-02  2.24540e+01
       H  6.92400e+00  4.70000e-01  2.41720e+01
       H  8.31900e+00  1.22800e+00  2.16530e+01
       O  6.36500e+00  2.01000e+00  2.75440e+01
       H  5.95400e+00  3.58500e+00  2.68520e+01
       H  7.75800e+00  2.54900e+00  2.86960e+01
       O  1.08330e+01  3.14000e+00  3.07870e+01
       H  1.26970e+01  2.97500e+00  3.08670e+01
       H  1.03890e+01  3.70000e+00  3.24040e+01
       O  8.68400e+00  9.34200e+00  3.91200e+00
       H  6.98500e+00  9.25600e+00  4.77300e+00
       H  8.68400e+00  1.08090e+01  3.01100e+00
       O  4.87300e+00  9.91900e+00  7.70700e+00
       H  3.69800e+00  9.77100e+00  6.19400e+00
       H  5.04700e+00  1.19610e+01  7.62400e+00
       O  1.00310e+01  5.01800e+00  9.69900e+00
       H  9.67500e+00  3.38200e+00  1.03400e+01
       H  9.13200e+00  5.98700e+00  1.08250e+01
       O  1.12460e+01  3.91800e+00  2.19290e+01
       H  1.26140e+01  2.77000e+00  2.23410e+01
       H  1.20730e+01  5.68600e+00  2.14970e+01
       O  6.82500e+00  7.16400e+00  2.57080e+01
       H  8.03600e+00  8.37400e+00  2.59800e+01
       H  5.20600e+00  7.90000e+00  2.58910e+01
       O  1.01710e+01  1.28110e+01  2.95000e-01
       H  1.00330e+01  1.28180e+01 -1.60900e+00
       H  9.88000e+00  1.44920e+01  4.80000e-01
       O  8.19000e+00  1.74020e+01  1.25300e+00
       H  9.47200e+00  1.85310e+01  1.25300e+00
       H  6.35100e+00  1.78170e+01  1.56800e+00
       O  1.12330e+01  1.61880e+01  8.29900e+00
       H  1.02910e+01  1.76890e+01  8.16600e+00
       H  1.27680e+01  1.71230e+01  8.73300e+00
       O  6.38600e+00  8.00200e+00  1.28460e+01
       H  7.70100e+00  8.89600e+00  1.36550e+01
       H  5.59100e+00  8.87700e+00  1.15190e+01
       O  8.18400e+00  1.04190e+01  1.88480e+01
       H  9.49800e+00  9.43400e+00  1.99050e+01
       H  6.88200e+00  9.02700e+00  1.89480e+01
       O  1.08060e+01  1.44310e+01  2.13280e+01
       H  9.17700e+00  1.35310e+01  2.06700e+01
       H  1.13440e+01  1.56960e+01  2.04480e+01
       O  9.23700e+00  1.39280e+01  3.03410e+01
       H  1.07790e+01  1.48390e+01  3.05220e+01
       H  9.96500e+00  1.31920e+01  2.88990e+01
       O  1.09180e+01  2.17070e+01  1.86400e+00
       H  1.02800e+01  2.34490e+01  2.27900e+00
       H  1.27080e+01  2.14560e+01  1.74900e+00
       O  9.35300e+00  1.61250e+01  1.39270e+01
       H  9.93800e+00  1.75940e+01  1.46180e+01
       H  9.51800e+00  1.63600e+01  1.22440e+01
       O  1.03710e+01  1.11070e+01  1.42680e+01
       H  9.64400e+00  1.04060e+01  1.58590e+01
       H  9.43400e+00  1.25230e+01  1.41170e+01
       O  3.35100e+00  2.27690e+01  2.01960e+01
       H  2.05500e+00  2.36860e+01  2.15030e+01
       H  2.45200e+00  2.14010e+01  1.94130e+01
       O  6.83600e+00  2.13290e+01  2.31990e+01
       H  8.24900e+00  2.08480e+01  2.23200e+01
       H  5.66800e+00  2.18410e+01  2.18860e+01
       O  4.60400e+00  1.56490e+01  3.00430e+01
       H  6.45300e+00  1.52170e+01  3.02070e+01
       H  3.82200e+00  1.47620e+01  3.15620e+01
       O  7.12500e+00  1.99760e+01  9.42100e+00
       H  5.91800e+00  2.04530e+01  1.07300e+01
       H  8.09900e+00  2.14960e+01  9.49100e+00
       O  9.06300e+00  2.59120e+01  1.31860e+01
       H  1.03500e+01  2.65720e+01  1.23670e+01
       H  9.68000e+00  2.43670e+01  1.36970e+01
       O  8.02200e+00  2.23430e+01  1.70420e+01
       H  9.14400e+00  2.33670e+01  1.80740e+01
       H  6.56200e+00  2.34620e+01  1.68520e+01
       O  1.07620e+01  2.62850e+01  1.99630e+01
       H  1.10360e+01  2.79660e+01  2.05380e+01
       H  1.10780e+01  2.54010e+01  2.14560e+01
       O  9.15800e+00  2.29020e+01  2.83910e+01
       H  8.21900e+00  2.35280e+01  2.70850e+01
       H  8.08900e+00  2.17600e+01  2.95090e+01
       O  6.21900e+00  2.01580e+01  3.19210e+01
       H  5.63500e+00  1.85110e+01  3.11610e+01
       H  7.53000e+00  1.96240e+01  3.30710e+01
       O  1.11910e+01  3.15090e+01  2.61700e+00
       H  1.04600e+01  3.22140e+01  4.10800e+00
       H  1.31760e+01  3.17510e+01  2.57700e+00
       O  4.74800e+00  5.50000e-02  8.60500e+00
       H  5.38000e+00  5.17000e-01  1.01830e+01
       H  6.05000e+00 -3.06000e-01  7.48000e+00
       O  8.69500e+00  3.08090e+01  1.57310e+01
       H  9.18900e+00  3.21030e+01  1.44950e+01
       H  8.44700e+00  2.90690e+01  1.48680e+01
       O  1.01280e+01  3.14020e+01  2.07660e+01
       H  9.45600e+00  3.09050e+01  1.91550e+01
       H  9.02000e+00  3.27310e+01  2.14150e+01
       O  1.22380e+01  3.01620e+01  2.58370e+01
       H  1.14180e+01  3.09080e+01  2.71100e+01
       H  1.23960e+01  3.13310e+01  2.46780e+01
       O  1.03950e+01  3.25370e+01  3.06240e+01
       H  1.10420e+01  3.43390e+01  3.07510e+01
       H  1.13780e+01  3.14860e+01  3.15380e+01
       O  1.04380e+01  3.62600e+00  5.08700e+00
       H  1.24350e+01  4.08200e+00  5.13600e+00
       H  9.82200e+00  4.28400e+00  6.68100e+00
       O  1.47620e+01  3.40100e+00  1.37760e+01
       H  1.65180e+01  3.82400e+00  1.33760e+01
       H  1.37520e+01  4.75700e+00  1.29640e+01
       O  1.23820e+01  1.01200e+00  1.76430e+01
       H  1.33460e+01  1.99700e+00  1.64440e+01
       H  1.19310e+01  2.13300e+00  1.89980e+01
       O  1.52780e+01  1.29300e+00  2.45590e+01
       H  1.60710e+01  9.46000e-01  2.63650e+01
       H  1.57940e+01  1.99000e-01  2.34990e+01
       O  2.22260e+01  3.16270e+01  2.47120e+01
       H  2.33380e+01  3.25950e+01  2.38760e+01
       H  2.21610e+01  3.00530e+01  2.41320e+01
       O  1.56400e+01  1.84700e+00  3.27170e+01
       H  1.74880e+01  2.47300e+00  3.18740e+01
       H  1.64030e+01  8.69000e-01  3.42670e+01
       O  1.48580e+01  1.01990e+01  2.75400e+00
       H  1.33600e+01  1.07120e+01  2.28200e+00
       H  1.45600e+01  9.31600e+00  4.55900e+00
       O  1.57170e+01  8.46900e+00  1.07390e+01
       H  1.73230e+01  9.58100e+00  1.08750e+01
       H  1.45740e+01  9.63100e+00  1.02210e+01
       O  1.52480e+01  1.03980e+01  1.65250e+01
       H  1.63240e+01  9.18100e+00  1.61490e+01
       H  1.41720e+01  1.04880e+01  1.50980e+01
       O  1.32260e+01  8.43800e+00  2.08010e+01
       H  1.40430e+01  8.99600e+00  1.92950e+01
       H  1.46610e+01  7.80200e+00  2.20930e+01
       O  1.01730e+01  1.09610e+01  2.58750e+01
       H  1.14770e+01  1.02230e+01  2.69400e+01
       H  1.12690e+01  1.07380e+01  2.43430e+01
       O  1.27920e+01  7.73700e+00  2.91730e+01
       H  1.21990e+01  6.03800e+00  2.94750e+01
       H  1.44270e+01  7.45000e+00  2.96170e+01
       O  1.51800e+01  1.94980e+01  3.57800e+00
       H  1.48830e+01  1.75960e+01  4.08000e+00
       H  1.67540e+01  1.95790e+01  2.62600e+00
       O  1.25170e+01  1.10930e+01  7.70100e+00
       H  1.22240e+01  1.27780e+01  7.55500e+00
       H  1.11500e+01  1.03930e+01  7.05700e+00
       O  1.62660e+01  1.62710e+01  1.07580e+01
       H  1.65070e+01  1.57950e+01  1.27680e+01
       H  1.77250e+01  1.69770e+01  1.02920e+01
       O  1.40690e+01  1.83990e+01  1.88970e+01
       H  1.55130e+01  1.75230e+01  1.81550e+01
       H  1.49580e+01  1.87090e+01  2.06730e+01
       O  1.40990e+01  1.54800e+01  2.55100e+01
       H  1.36980e+01  1.68720e+01  2.69380e+01
       H  1.25670e+01  1.53790e+01  2.44440e+01
       O  1.33090e+01  1.75740e+01  3.02920e+01
       H  1.49370e+01  1.69340e+01  3.08100e+01
       H  1.39690e+01  1.94940e+01  3.00120e+01
       O  1.83710e+01  2.32570e+01  9.25000e-01
       H  1.94790e+01  2.34800e+01  2.32100e+00
       H  1.90870e+01  2.43250e+01 -3.69000e-01
       O  1.21000e+01  2.17300e+01  1.13550e+01
       H  1.31410e+01  2.22870e+01  1.27430e+01
       H  1.34670e+01  2.22360e+01  1.02440e+01
       O  1.21630e+01  2.32900e+01  2.35970e+01
       H  1.13240e+01  2.27360e+01  2.49490e+01
       H  1.38820e+01  2.28720e+01  2.38400e+01
       O  2.01730e+01  2.67610e+01  2.26280e+01
       H  2.02060e+01  2.65320e+01  2.07920e+01
       H  2.15560e+01  2.57420e+01  2.33890e+01
       O  1.67010e+01  2.11650e+01  2.26050e+01
       H  1.80280e+01  2.06860e+01  2.38480e+01
       H  1.71040e+01  2.28660e+01  2.19490e+01
       O  1.13910e+01  2.64610e+01  3.37050e+01
       H  9.84100e+00  2.71920e+01  3.40480e+01
       H  1.17760e+01  2.55400e+01  3.52430e+01
       O  9.89800e+00  2.59890e+01  4.55300e+00
       H  8.90200e+00  2.61310e+01  6.03900e+00
       H  1.02870e+01  2.78060e+01  4.37600e+00
       O  1.43080e+01  2.69600e+01  1.08770e+01
       H  1.53020e+01  2.74050e+01  1.21730e+01
       H  1.54630e+01  2.61510e+01  9.63300e+00
       O  1.34330e+01  2.29600e+01  1.69040e+01
       H  1.34090e+01  2.41310e+01  1.81320e+01
       H  1.36240e+01  2.11910e+01  1.75200e+01
       O  1.64090e+01  2.67680e+01  2.68750e+01
       H  1.75900e+01  2.69870e+01  2.54310e+01
       H  1.47510e+01  2.77030e+01  2.62300e+01
       O  1.44050e+01  2.27330e+01  2.98920e+01
       H  1.54230e+01  2.30790e+01  2.84940e+01
       H  1.28260e+01  2.32590e+01  2.94160e+01
       O  6.90500e+00  2.94080e+01  7.49000e-01
       H  8.42800e+00  3.04830e+01  1.56700e+00
       H  6.35300e+00  3.08140e+01 -4.44000e-01
       O  9.18900e+00  3.41590e+01  6.50900e+00
       H  1.01980e+01  3.41930e+01  8.00200e+00
       H  9.89000e+00  3.56920e+01  5.78500e+00
       O  1.42560e+01  3.23160e+01  9.36900e+00
       H  1.57330e+01  3.28670e+01  9.48600e+00
       H  1.47540e+01  3.06700e+01  1.00900e+01
       O  1.47140e+01  3.08410e+01  1.65160e+01
       H  1.37480e+01  2.95510e+01  1.72790e+01
       H  1.32180e+01  3.19330e+01  1.66140e+01
       O  1.84090e+01  3.36410e+01  2.06110e+01
       H  1.96010e+01  3.22740e+01  2.11150e+01
       H  1.73600e+01  3.26550e+01  1.95180e+01
       O  1.60620e+01  2.86380e+01  3.22070e+01
       H  1.46480e+01  2.79580e+01  3.32530e+01
       H  1.57520e+01  2.80140e+01  3.05220e+01
       O  1.62000e+01  3.08950e+01  1.47300e+00
       H  1.66260e+01  2.99680e+01 -1.30000e-01
       H  1.71670e+01  2.98330e+01  2.92700e+00
       O  2.02780e+01  3.52900e+00  6.04800e+00
       H  2.09770e+01  3.61100e+00  4.57500e+00
       H  2.13120e+01  4.51300e+00  7.25100e+00
       O  2.30790e+01  5.77800e+00  1.04080e+01
       H  2.46500e+01  6.25900e+00  1.08380e+01
       H  2.23420e+01  7.60900e+00  1.01780e+01
       O  1.95810e+01  2.03100e+00  1.21100e+01
       H  1.90390e+01  1.08200e+00  1.04400e+01
       H  2.11410e+01  2.99100e+00  1.18510e+01
       O  2.20050e+01  3.22300e+00  2.31780e+01
       H  2.14290e+01  4.09000e+00  2.45540e+01
       H  2.06540e+01  1.79100e+00  2.27110e+01
       O  1.66300e+01  6.42200e+00  2.37920e+01
       H  1.62190e+01  4.80400e+00  2.44060e+01
       H  1.70660e+01  7.12800e+00  2.52820e+01
       O  2.16760e+01  5.56400e+00  2.81580e+01
       H  2.06580e+01  6.71700e+00  2.91850e+01
       H  2.34130e+01  5.82800e+00  2.89960e+01
       O  1.52570e+01  5.26500e+00  5.62600e+00
       H  1.69140e+01  4.51900e+00  5.49000e+00
       H  1.51440e+01  6.15000e+00  6.97200e+00
       O  2.01370e+01  1.10820e+01  1.04370e+01
       H  2.00210e+01  1.09470e+01  8.73300e+00
       H  2.10250e+01  1.25550e+01  1.08530e+01
       O  2.30890e+01  1.46270e+01  1.24370e+01
       H  2.47160e+01  1.52540e+01  1.27360e+01
       H  2.32840e+01  1.32280e+01  1.36530e+01
       O  2.40830e+01  1.26490e+01  2.25660e+01
       H  2.23970e+01  1.26630e+01  2.30420e+01
       H  2.49010e+01  1.38510e+01  2.35650e+01
       O  1.78650e+01  7.90900e+00  3.00360e+01
       H  1.75090e+01  8.04500e+00  3.19820e+01
       H  1.80780e+01  9.58200e+00  2.93180e+01
       O  1.88240e+01  8.48600e+00  1.04000e-01
       H  1.99970e+01  1.01910e+01 -5.70000e-02
       H  1.70770e+01  8.99800e+00  7.79000e-01
       O  2.01220e+01  9.14300e+00  5.34300e+00
       H  1.93730e+01  8.81900e+00  3.82100e+00
       H  2.19980e+01  8.77600e+00  5.12800e+00
       O  1.64130e+01  1.44590e+01  5.85500e+00
       H  1.55360e+01  1.30070e+01  5.23900e+00
       H  1.60060e+01  1.47250e+01  7.73700e+00
       O  1.75610e+01  1.50660e+01  1.56540e+01
       H  1.75750e+01  1.33980e+01  1.60550e+01
       H  1.89780e+01  1.58280e+01  1.64000e+01
       O  2.63740e+01  1.70470e+01  2.48170e+01
       H  2.79830e+01  1.70980e+01  2.56320e+01
       H  2.56290e+01  1.87510e+01  2.49190e+01
       O  1.97840e+01  1.29600e+01  2.87060e+01
       H  2.16620e+01  1.30550e+01  2.88710e+01
       H  1.95450e+01  1.40700e+01  2.71430e+01
       O  1.78910e+01  1.67330e+01  3.24990e+01
       H  1.83270e+01  1.52400e+01  3.12770e+01
       H  1.86330e+01  1.83350e+01  3.16930e+01
       O  2.37330e+01  2.30240e+01  1.66300e+00
       H  2.48000e+01  2.40520e+01  2.77600e+00
       H  2.46930e+01  2.26180e+01  1.98000e-01
       O  2.07890e+01  1.84400e+01  9.44300e+00
       H  2.07660e+01  1.72570e+01  7.88100e+00
       H  2.18960e+01  1.73450e+01  1.03850e+01
       O  2.15740e+01  1.74930e+01  1.78380e+01
       H  2.05970e+01  1.89550e+01  1.72180e+01
       H  2.25380e+01  1.68740e+01  1.62510e+01
       O  1.91680e+01  1.47480e+01  2.41310e+01
       H  1.97110e+01  1.63900e+01  2.37120e+01
       H  1.74290e+01  1.46950e+01  2.44030e+01
       O  2.21490e+01  2.01980e+01  2.49770e+01
       H  2.16390e+01  2.09240e+01  2.64860e+01
       H  2.26560e+01  2.16570e+01  2.44110e+01
       O  2.05650e+01  2.07920e+01  2.96000e+01
       H  2.22640e+01  2.04090e+01  3.02140e+01
       H  2.05480e+01  2.24080e+01  3.05970e+01
       O  2.08020e+01  2.65470e+01  9.61500e+00
       H  2.00990e+01  2.79840e+01  8.33800e+00
       H  2.12770e+01  2.75390e+01  1.13250e+01
       O  1.62830e+01  2.35890e+01  7.77900e+00
       H  1.60930e+01  2.19730e+01  6.71200e+00
       H  1.79010e+01  2.29710e+01  8.15400e+00
       O  1.84690e+01  2.97980e+01  1.35680e+01
       H  1.97120e+01  3.12160e+01  1.35060e+01
       H  1.68720e+01  3.03430e+01  1.43960e+01
       O  1.87900e+01  2.17120e+01  1.60600e+01
       H  1.98780e+01  2.30900e+01  1.64850e+01
       H  1.72010e+01  2.23260e+01  1.58190e+01
       O  2.17470e+01  2.60840e+01  1.63490e+01
       H  2.07830e+01  2.70210e+01  1.53000e+01
       H  2.27050e+01  2.73280e+01  1.72060e+01
       O  2.07690e+01  2.62110e+01  3.20500e+01
       H  2.14880e+01  2.74040e+01  3.33280e+01
       H  1.89890e+01  2.67100e+01  3.21450e+01
       O  1.98200e+01  2.91810e+01  5.55900e+00
       H  2.09910e+01  2.95090e+01  4.10900e+00
       H  1.94310e+01  3.10180e+01  6.22100e+00
       O  1.92400e+01  3.38670e+01  7.99300e+00
       H  1.91070e+01  3.50390e+01  6.60400e+00
       H  2.06970e+01  3.36710e+01  9.06300e+00
       O  2.25110e+01  3.49760e+01  1.57930e+01
       H  2.37160e+01  3.61630e+01  1.66030e+01
       H  2.16990e+01  3.61500e+01  1.44670e+01
       O  2.26220e+01  3.02840e+01  1.90690e+01
       H  2.20490e+01  3.13510e+01  1.77250e+01
       H  2.44110e+01  3.07730e+01  1.95760e+01
       O  1.86390e+01  3.36110e+01  2.83690e+01
       H  1.82260e+01  3.21590e+01  2.91030e+01
       H  1.99060e+01  3.30080e+01  2.71580e+01
       O  2.25200e+01  1.32500e+00  3.19260e+01
       H  2.28030e+01  2.66800e+00  3.07960e+01
       H  2.10450e+01  4.25000e-01  3.11220e+01
       O  2.17540e+01  3.78900e+00  1.15900e+00
       H  2.20850e+01  2.78500e+00 -1.80000e-01
       H  2.08500e+01  5.17500e+00  6.10000e-01
       O  2.84570e+01  5.53900e+00  1.21330e+01
       H  2.94890e+01  4.39000e+00  1.11820e+01
       H  2.91610e+01  7.13100e+00  1.25870e+01
       O  2.24950e+01  5.96600e+00  1.73240e+01
       H  2.43770e+01  5.37900e+00  1.73930e+01
       H  2.19060e+01  5.49100e+00  1.88570e+01
       O  2.81280e+01  3.30400e+00  2.22870e+01
       H  2.81230e+01  2.99900e+00  2.04910e+01
       H  2.65330e+01  3.35500e+00  2.28760e+01
       O  2.83780e+01  1.04550e+01  2.72660e+01
       H  3.00190e+01  1.02920e+01  2.80510e+01
       H  2.86350e+01  1.00390e+01  2.54630e+01
       O  2.70310e+01  8.35300e+00  3.48060e+01
       H  2.61160e+01  9.98400e+00  3.45710e+01
       H  2.86850e+01  8.95100e+00  3.47390e+01
       O  2.49510e+01  8.16000e+00  4.45400e+00
       H  2.59300e+01  9.61600e+00  5.16000e+00
       H  2.59470e+01  7.99400e+00  2.72400e+00
       O  2.69370e+01  1.24360e+01  6.86900e+00
       H  2.54920e+01  1.32840e+01  6.70800e+00
       H  2.76890e+01  1.33320e+01  8.26600e+00
       O  2.33650e+01  1.12140e+01  1.69330e+01
       H  2.22470e+01  9.74400e+00  1.67890e+01
       H  2.32640e+01  1.20350e+01  1.85390e+01
       O  2.83210e+01  8.75900e+00  2.21580e+01
       H  2.76620e+01  6.89500e+00  2.24820e+01
       H  2.69710e+01  9.71000e+00  2.19020e+01
       O  2.70710e+01  6.10900e+00  2.95550e+01
       H  2.75910e+01  7.66300e+00  2.88570e+01
       H  2.73040e+01  6.32000e+00  3.12610e+01
       O  2.24740e+01  1.17040e+01  3.46400e+01
       H  2.27520e+01  1.33040e+01  3.55840e+01
       H  2.28400e+01  1.20900e+01  3.30300e+01
       O  2.16560e+01  1.49710e+01  5.61500e+00
       H  2.16900e+01  1.58600e+01  3.97700e+00
       H  1.99640e+01  1.42250e+01  5.77400e+00
       O  2.85390e+01  2.14920e+01  9.82000e+00
       H  2.72880e+01  2.21810e+01  8.68800e+00
       H  2.80650e+01  2.24200e+01  1.16020e+01
       O  2.83640e+01  1.60200e+01  1.11090e+01
       H  3.00330e+01  1.66490e+01  1.20890e+01
       H  2.84560e+01  1.74400e+01  1.00820e+01
       O  5.40000e-02  1.36860e+01  1.81030e+01
       H -1.71400e+00  1.29280e+01  1.88410e+01
       H  1.00800e+00  1.24290e+01  1.73830e+01
       O  2.46360e+01  1.28940e+01  2.99570e+01
       H  2.59060e+01  1.39140e+01  3.11830e+01
       H  2.56410e+01  1.16090e+01  2.91620e+01
       O  2.15480e+01  1.72500e+01  7.49000e-01
       H  2.18430e+01  1.90260e+01  9.05000e-01
       H  2.03850e+01  1.67160e+01 -6.97000e-01
       O  2.60950e+01  2.72740e+01  4.52000e+00
       H  2.78890e+01  2.64580e+01  4.50500e+00
       H  2.56480e+01  2.69700e+01  6.16500e+00
       O  2.36100e+01  2.25150e+01  8.00800e+00
       H  2.26530e+01  2.11870e+01  8.73900e+00
       H  2.22860e+01  2.40950e+01  8.44400e+00
       O  2.73550e+01  1.89290e+01  1.81800e+01
       H  2.72000e+01  2.03490e+01  1.71550e+01
       H  2.55790e+01  1.83220e+01  1.87700e+01
       O  2.67650e+01  2.36330e+01  1.44440e+01
       H  2.74410e+01  2.52980e+01  1.36510e+01
       H  2.50860e+01  2.42560e+01  1.47490e+01
       O  3.14780e+01  2.07690e+01  2.09860e+01
       H  3.04400e+01  2.25090e+01  2.11350e+01
       H  3.05670e+01  1.96560e+01  2.00430e+01
       O  2.48120e+01  2.04120e+01  3.26680e+01
       H  2.62420e+01  2.14780e+01  3.18740e+01
       H  2.57870e+01  1.90230e+01  3.31580e+01
       O  2.21050e+01  2.90760e+01  9.28000e-01
       H  2.32960e+01  2.79230e+01  1.73900e+00
       H  2.26230e+01  3.09940e+01  8.82000e-01
       O  2.95720e+01  3.12560e+01  8.62600e+00
       H  3.07950e+01  3.02030e+01  7.73600e+00
       H  2.82770e+01  3.15190e+01  7.26000e+00
       O  3.18170e+01  3.48430e+01  1.82830e+01
       H  3.24380e+01  3.43890e+01  1.64740e+01
       H  3.27430e+01  3.64220e+01  1.83410e+01
       O  2.79150e+01  2.56010e+01  1.90330e+01
       H  2.93580e+01  2.65610e+01  1.91900e+01
       H  2.81480e+01  2.44290e+01  1.75300e+01
       O  2.45480e+01  2.46540e+01  2.40250e+01
       H  2.55280e+01  2.56350e+01  2.28240e+01
       H  2.53000e+01  2.52000e+01  2.56450e+01
       O  2.85400e+01  2.29220e+01  3.03700e+01
       H  2.74140e+01  2.40960e+01  2.97810e+01
       H  2.96740e+01  2.39140e+01  3.18730e+01
       O  2.49690e+01  3.36230e+01  1.01400e+00
       H  2.65210e+01  3.30580e+01  1.51800e+00
       H  2.49900e+01  3.43220e+01 -6.83000e-01
       O  2.30750e+01  3.21710e+01  1.13240e+01
       H  2.33160e+01  3.27750e+01  1.30970e+01
       H  2.44600e+01  3.32030e+01  1.06620e+01
       O  2.74970e+01  2.73600e+00  1.72240e+01
       H  2.83970e+01  3.41500e+00  1.57150e+01
       H  2.82340e+01  1.23300e+00  1.74120e+01
       O  2.63690e+01  3.30600e+01  2.20770e+01
       H  2.61700e+01  3.47460e+01  2.22640e+01
       H  2.75920e+01  3.24040e+01  2.33210e+01
       O  3.02210e+01  3.09500e+01  2.58430e+01
       H  3.03050e+01  2.90380e+01  2.62080e+01
       H  3.03630e+01  3.19790e+01  2.74140e+01
       O  2.49730e+01  2.67320e+01  2.86070e+01
       H  2.53850e+01  2.83690e+01  2.92480e+01
       H  2.33300e+01  2.65970e+01  2.92340e+01
       O  3.21650e+01  4.85700e+00  2.25800e+00
       H  3.24170e+01  6.19500e+00  1.15700e+00
       H  3.26150e+01  3.72700e+00  1.11200e+00
       O  2.80670e+01  3.53300e+00  5.21700e+00
       H  2.69600e+01  4.44700e+00  4.15800e+00
       H  2.98750e+01  3.86300e+00  4.44800e+00
       O  3.32790e+01  2.78200e+00  1.30280e+01
       H  3.37080e+01  3.95500e+00  1.18170e+01
       H  3.36560e+01  3.54500e+00  1.46310e+01
       O  3.42780e+01  4.94400e+00  1.74920e+01
       H  3.34380e+01  6.56300e+00  1.78760e+01
       H  3.49060e+01  4.45200e+00  1.89950e+01
       O  3.23630e+01  1.90800e+00  2.60920e+01
       H  3.19410e+01  1.68300e+00  2.42680e+01
       H  3.38500e+01  1.39000e+00  2.69040e+01
       O  2.79820e+01  4.18000e-01  2.82410e+01
       H  2.75160e+01  2.08000e+00  2.83090e+01
       H  2.95930e+01  1.76000e-01  2.72990e+01
       O  2.88450e+01  1.46720e+01  2.72400e+00
       H  2.79630e+01  1.39300e+01  4.13900e+00
       H  3.03860e+01  1.57140e+01  3.37900e+00
       O  2.80830e+01  1.06180e+01  1.42980e+01
       H  2.86230e+01  1.21600e+01  1.32930e+01
       H  2.64860e+01  1.10150e+01  1.53790e+01
       O  3.38670e+01  1.05450e+01  1.33060e+01
       H  3.51650e+01  9.61200e+00  1.38100e+01
       H  3.36150e+01  1.02700e+01  1.15130e+01
       O  3.17900e+01  9.69600e+00  1.82230e+01
       H  3.04840e+01  9.33400e+00  1.94210e+01
       H  3.08340e+01  1.00960e+01  1.69290e+01
       O  3.01410e+01  1.50060e+01  2.15320e+01
       H  2.85650e+01  1.55940e+01  2.20990e+01
       H  3.09420e+01  1.42530e+01  2.30770e+01
       O  3.27980e+01  1.07320e+01  3.06800e+01
       H  3.40730e+01  9.52800e+00  3.07990e+01
       H  3.29910e+01  1.15120e+01  2.89830e+01
       O  3.36520e+01  1.62650e+01  5.08600e+00
       H  3.53990e+01  1.62390e+01  4.73000e+00
       H  3.35030e+01  1.79390e+01  5.63100e+00
       O  3.19470e+01  1.07990e+01  7.94300e+00
       H  2.98940e+01  1.05490e+01  7.61900e+00
       H  3.22710e+01  1.24140e+01  7.07500e+00
       O  3.29000e-01  1.55160e+01  1.17460e+01
       H -4.46000e-01  1.42490e+01  1.29390e+01
       H -6.85000e-01  1.70180e+01  1.19350e+01
       O  4.26200e+00  1.91650e+01  1.43080e+01
       H  3.57900e+00  1.76910e+01  1.49200e+01
       H  5.72300e+00  1.91830e+01  1.52040e+01
       O  3.29950e+01  1.35460e+01  2.59480e+01
       H  3.21670e+01  1.50600e+01  2.67870e+01
       H  3.44250e+01  1.38000e+01  2.50070e+01
       O  1.77300e+00  1.35240e+01  3.40370e+01
       H  2.27000e-01  1.44090e+01  3.34460e+01
       H  2.16700e+00  1.46700e+01  3.55110e+01
       O  3.30290e+01  2.05290e+01  7.24700e+00
       H  3.43880e+01  2.14140e+01  8.00300e+00
       H  3.14510e+01  2.08310e+01  8.18200e+00
       O  2.03700e+00  2.42500e+01  1.02510e+01
       H  3.74300e+00  2.50080e+01  9.87600e+00
       H  1.89400e+00  2.50430e+01  1.19030e+01
       O  3.27530e+01  1.92590e+01  1.39760e+01
       H  3.27920e+01  2.08860e+01  1.37920e+01
       H  3.43340e+01  1.87990e+01  1.49760e+01
       O  3.96000e-01  1.86730e+01  1.86990e+01
       H -1.21100e+00  1.89500e+01  1.91270e+01
       H  4.69000e-01  1.69770e+01  1.84360e+01
       O  3.08550e+01  1.83700e+01  2.79590e+01
       H  2.97590e+01  1.96810e+01  2.86900e+01
       H  3.21030e+01  1.94770e+01  2.67630e+01
       O  2.77230e+01  1.59920e+01  3.30910e+01
       H  2.93900e+01  1.64230e+01  3.21920e+01
       H  2.78010e+01  1.58590e+01  3.48040e+01
       O  3.10680e+01  2.78950e+01  3.34800e+00
       H  3.25170e+01  2.78250e+01  4.61000e+00
       H  3.15290e+01  2.94590e+01  2.32400e+00
       O  3.50390e+01  2.80080e+01  6.66300e+00
       H  3.59660e+01  2.69340e+01  7.68300e+00
       H  3.60550e+01  2.83360e+01  5.33600e+00
       O  2.93560e+01  2.81960e+01  1.30250e+01
       H  2.92100e+01  2.93350e+01  1.45890e+01
       H  2.88740e+01  2.96290e+01  1.18670e+01
       O  3.23860e+01  2.84340e+01  1.89610e+01